 &FCI NORB=  16,NELEC=12,MS2=0,
  ORBSYM=1,1,1,1,1,1,1,1,1,1,1,1,1,1,1,1,
  ISYM=1,
 &END
 0.2500000000000687    1    1    1    1
 2.59210271462459e-09    1    1    2    1
 0.2500001034682026    1    1    2    2
 1.128278584457443e-08    1    1    3    1
 2.911646034505173e-08    1    1    3    2
 0.2499999414280255    1    1    3    3
 4.564409505675314e-08    1    1    4    1
 -6.208397982860804e-09    1    1    4    2
 -8.146139211535504e-09    1    1    4    3
 0.2500000230894078    1    1    4    4
 2.332138618882971e-08    1    1    5    1
 -2.924361901059819e-08    1    1    5    2
 -1.736709851071624e-08    1    1    5    3
 9.520723844036926e-09    1    1    5    4
 0.2499999320144008    1    1    5    5
 2.958527554244511e-09    1    1    6    1
 -3.047968185108084e-09    1    1    6    2
 -5.47100200305794e-08    1    1    6    3
 7.095441302525843e-09    1    1    6    4
 1.162607568694252e-08    1    1    6    5
 0.2499999999996613    1    1    6    6
 9.496400020920613e-08    1    1    7    1
 -1.515267922829738e-08    1    1    7    2
 -1.470868613387045e-08    1    1    7    3
 -1.04028254202006e-08    1    1    7    4
 -1.562382078320682e-09    1    1    7    5
 -4.17315852179807e-08    1    1    7    6
 0.2500000798460672    1    1    7    7
 2.488745776025143e-08    1    1    8    1
 -4.675664517574182e-08    1    1    8    2
 -4.528995273449319e-08    1    1    8    3
 -2.894110084688095e-09    1    1    8    4
 -5.03368355936066e-08    1    1    8    5
 -1.848747485308561e-08    1    1    8    6
 -1.170433991544447e-08    1    1    8    7
 0.2499999514865162    1    1    8    8
 -1.58309499901716e-09    1    1    9    1
 7.404136238591134e-11    1    1    9    2
 -3.27146140614503e-08    1    1    9    3
 -2.044055963232975e-08    1    1    9    4
 -5.524378351316394e-09    1    1    9    5
 -5.770332254770371e-08    1    1    9    6
 6.554282424637236e-08    1    1    9    7
 -1.722108623534375e-09    1    1    9    8
 0.2499999842176958    1    1    9    9
 -1.77000578340594e-08    1    1   10    1
 1.944793334975435e-08    1    1   10    2
 2.308057249146925e-08    1    1   10    3
 -1.84603110239121e-08    1    1   10    4
 -3.605452878353531e-08    1    1   10    5
 3.570090078354808e-08    1    1   10    6
 -1.469487619226139e-08    1    1   10    7
 9.341790670808426e-10    1    1   10    8
 -1.736268994773095e-09    1    1   10    9
 0.2500000448253402    1    1   10   10
 4.340254862982383e-08    1    1   11    1
 1.120040275425494e-08    1    1   11    2
 3.281443747347588e-08    1    1   11    3
 5.308308459194686e-09    1    1   11    4
 1.503350567929271e-08    1    1   11    5
 -5.763333539422695e-08    1    1   11    6
 3.448504331460958e-08    1    1   11    7
 1.521694424680904e-08    1    1   11    8
 -1.580258807429556e-08    1    1   11    9
 7.511025535792901e-09    1    1   11   10
 0.2499999396247584    1    1   11   11
 -1.528319269397125e-09    1    1   12    1
 9.14777893843743e-08    1    1   12    2
 5.84224438435103e-08    1    1   12    3
 -2.165680051951487e-08    1    1   12    4
 9.677923036093119e-09    1    1   12    5
 2.014527443346231e-08    1    1   12    6
 -9.156039359537101e-09    1    1   12    7
 4.521768078063361e-08    1    1   12    8
 5.079782133368036e-09    1    1   12    9
 -1.50356550600902e-08    1    1   12   10
 -1.194042717015376e-08    1    1   12   11
 0.2500001034681077    1    1   12   12
 -3.432296438829282e-08    1    1   13    1
 5.842245169902502e-08    1    1   13    2
 -1.941759307279509e-08    1    1   13    3
 2.546467592218063e-08    1    1   13    4
 1.443231878589796e-08    1    1   13    5
 3.8357362266284e-08    1    1   13    6
 4.163226667407205e-08    1    1   13    7
 5.002551539326516e-08    1    1   13    8
 -1.944498623647692e-08    1    1   13    9
 -2.119627436160354e-08    1    1   13   10
 -3.749647098719979e-08    1    1   13   11
 2.911647447390512e-08    1    1   13   12
 0.2499999414280212    1    1   13   13
 -1.684766588057862e-08    1    1   14    1
 -2.165682876587963e-08    1    1   14    2
 2.546465690593185e-08    1    1   14    3
 2.199670892608321e-09    1    1   14    4
 2.321385806569173e-08    1    1   14    5
 1.299338935069849e-08    1    1   14    6
 1.816953895150182e-09    1    1   14    7
 5.092077819574158e-09    1    1   14    8
 -1.409865150566144e-08    1    1   14    9
 2.194948421987146e-08    1    1   14   10
 8.666392550281564e-09    1    1   14   11
 -6.208404985003829e-09    1    1   14   12
 -8.146094399492043e-09    1    1   14   13
 0.2500000230894224    1    1   14   14
 -3.353689352581233e-08    1    1   15    1
 9.677906359773974e-09    1    1   15    2
 1.443231171250055e-08    1    1   15    3
 2.321387369163896e-08    1    1   15    4
 -6.496401454561483e-08    1    1   15    5
 1.078558898433958e-08    1    1   15    6
 5.751888211242227e-09    1    1   15    7
 5.109557676678374e-08    1    1   15    8
 9.114509925508e-09    1    1   15    9
 2.746785677338879e-08    1    1   15   10
 2.510237283113606e-08    1    1   15   11
 -2.924365170678265e-08    1    1   15   12
 -1.736711277280466e-08    1    1   15   13
 9.520742263551914e-09    1    1   15   14
 0.2499999320143617    1    1   15   15
 2.323960471340043e-09    1    1   16    1
 -1.528320261875628e-09    1    1   16    2
 -3.432298040524118e-08    1    1   16    3
 -1.684768735060782e-08    1    1   16    4
 -3.353691493812647e-08    1    1   16    5
 -4.281765970375253e-08    1    1   16    6
 5.944473242382872e-08    1    1   16    7
 -1.421044762684206e-08    1    1   16    8
 -1.21470140823242e-08    1    1   16    9
 -3.265011390851579e-08    1    1   16   10
 7.115705236310942e-08    1    1   16   11
 2.592127034748422e-09    1    1   16   12
 1.128281573709864e-08    1    1   16   13
 4.564409270672559e-08    1    1   16   14
 2.332140795841648e-08    1    1   16   15
 0.2499999999999408    1    1   16   16
 2.592102721563484e-09    2    1    1    1
 0.2500001034682026    2    1    2    1
 -1.393324189859402e-07    2    1    2    2
 2.91164603406325e-08    2    1    3    1
 6.168027035337617e-08    2    1    3    2
 -7.958820861319418e-09    2    1    3    3
 -6.208397988143696e-09    2    1    4    1
 -1.216080740598153e-07    2    1    4    2
 -4.214266487037892e-09    2    1    4    3
 2.792672231439224e-08    2    1    4    4
 -2.924361900924418e-08    2    1    5    1
 -3.312444737385054e-09    2    1    5    2
 -3.45175889440232e-08    2    1    5    3
 2.892457206558604e-08    2    1    5    4
 5.49448530173841e-08    2    1    5    5
 -3.047968178429397e-09    2    1    6    1
 -0.1021553695364484    2    1    6    2
 -0.07498280795570209    2    1    6    3
 0.09018512758833622    2    1    6    4
 -0.0989473028157693    2    1    6    5
 5.145906732920785e-08    2    1    6    6
 -1.515267921660847e-08    2    1    7    1
 0.2150774621560711    2    1    7    2
 0.08900397249124709    2    1    7    3
 0.03955311252885911    2    1    7    4
 -0.1052634298206847    2    1    7    5
 4.60360807791821e-08    2    1    7    6
 -6.812572718831087e-08    2    1    7    7
 -4.675664518605745e-08    2    1    8    1
 0.05888233510298146    2    1    8    2
 -0.1224923231676575    2    1    8    3
 -0.1040298184576432    2    1    8    4
 0.01158338931658605    2    1    8    5
 -7.372925018568428e-09    2    1    8    6
 1.247018893202e-08    2    1    8    7
 -5.824121869559192e-08    2    1    8    8
 7.404137304855435e-11    2    1    9    1
 0.1051343638389883    2    1    9    2
 -0.06265776314330759    2    1    9    3
 -0.0004827687161789123    2    1    9    4
 -0.01860621046609893    2    1    9    5
 -5.338724475857859e-08    2    1    9    6
 6.798979895049683e-08    2    1    9    7
 8.07930780907604e-09    2    1    9    8
 3.351045025341193e-08    2    1    9    9
 1.944793335299672e-08    2    1   10    1
 0.01254613186922147    2    1   10    2
 -0.08992911972909023    2    1   10    3
 0.1353111271828755    2    1   10    4
 -0.004739403096967745    2    1   10    5
 -1.142910500700189e-07    2    1   10    6
 2.559452114727434e-08    2    1   10    7
 5.404102844115758e-09    2    1   10    8
 3.171566172629053e-08    2    1   10    9
 9.636173666299244e-08    2    1   10   10
 1.120040274502715e-08    2    1   11    1
 0.1075456860145094    2    1   11    2
 0.009362814941718619    2    1   11    3
 -0.01363404590303786    2    1   11    4
 0.0593616217897795    2    1   11    5
 -4.078779426700212e-08    2    1   11    6
 3.367354033741135e-08    2    1   11    7
 -1.977595424154297e-08    2    1   11    8
 1.991485674128555e-08    2    1   11    9
 8.195207534454477e-08    2    1   11   10
 9.473252019373429e-08    2    1   11   11
 9.14777893738581e-08    2    1   12    1
 1.67584886157512e-08    2    1   12    2
 3.099226205552851e-09    2    1   12    3
 4.892269475866619e-08    2    1   12    4
 2.731277795479875e-09    2    1   12    5
 -0.1023701965728456    2    1   12    6
 0.1870576249232713    2    1   12    7
 -0.04804951169268663    2    1   12    8
 0.07759182542395085    2    1   12    9
 -0.1507140876011931    2    1   12   10
 0.0801478098250558    2    1   12   11
 -3.774108077046821e-08    2    1   12   12
 5.842245169511597e-08    2    1   13    1
 -1.958895126805891e-08    2    1   13    2
 -6.341835911200919e-08    2    1   13    3
 2.449143506798617e-08    2    1   13    4
 5.199967981722006e-08    2    1   13    5
 -0.0542460493673328    2    1   13    6
 0.1209522555823502    2    1   13    7
 0.1390542134694934    2    1   13    8
 -0.02440533339185633    2    1   13    9
 0.05351937399641451    2    1   13   10
 0.01677189620154718    2    1   13   11
 2.859575299778922e-08    2    1   13   12
 -1.935417647150924e-08    2    1   13   13
 -2.16568287586319e-08    2    1   14    1
 1.046650324668519e-07    2    1   14    2
 4.888265971017177e-09    2    1   14    3
 3.232389601781443e-08    2    1   14    4
 -6.344767137495804e-08    2    1   14    5
 -0.03047142877173133    2    1   14    6
 -0.1120516314642931    2    1   14    7
 0.1028611233214816    2    1   14    8
 -0.03377367159861078    2    1   14    9
 -0.1165881098470398    2    1   14   10
 0.0147405903181011    2    1   14   11
 -4.250247597714203e-08    2    1   14   12
 1.143321294354827e-08    2    1   14   13
 2.003409525733778e-08    2    1   14   14
 9.677906349686943e-09    2    1   15    1
 8.457352701562178e-08    2    1   15    2
 8.813544516231113e-08    2    1   15    3
 -7.390207634048549e-08    2    1   15    4
 1.60852716128549e-08    2    1   15    5
 0.1190248480616466    2    1   15    6
 0.06413362377130223    2    1   15    7
 -0.01344086708518041    2    1   15    8
 0.0113066776666515    2    1   15    9
 0.01726893368924579    2    1   15   10
 -0.07752953326196338    2    1   15   11
 7.566079542915757e-08    2    1   15   12
 -1.327948842389116e-08    2    1   15   13
 8.529755734955889e-08    2    1   15   14
 -4.821601522639397e-08    2    1   15   15
 -1.528320266465221e-09    2    1   16    1
 8.040554689677255e-08    2    1   16    2
 4.164566158749098e-08    2    1   16    3
 -3.708610682272291e-09    2    1   16    4
 -2.153086245208173e-08    2    1   16    5
 1.159198786179684e-08    2    1   16    6
 4.69594366223022e-09    2    1   16    7
 1.945557207327452e-08    2    1   16    8
 -2.83271266739025e-08    2    1   16    9
 7.983709161341613e-08    2    1   16   10
 3.007370739928946e-08    2    1   16   11
 0.2499999885319058    2    1   16   12
 6.435874487503067e-08    2    1   16   13
 -3.35184545631903e-08    2    1   16   14
 -1.743598446998234e-08    2    1   16   15
 -2.592089423404006e-09    2    1   16   16
 0.2500001034682026    2    2    1    1
 -1.393324189774433e-07    2    2    2    1
 0.581751334100185    2    2    2    2
 6.168027035012431e-08    2    2    3    1
 0.0515247116560257    2    2    3    2
 0.1625976048183217    2    2    3    3
 -1.216080740494862e-07    2    2    4    1
 -0.02660332903235869    2    2    4    2
 -0.01105961522323822    2    2    4    3
 0.156060900120876    2    2    4    4
 -3.312444736852423e-09    2    2    5    1
 -0.0299250350713401    2    2    5    2
 -0.004882259701383411    2    2    5    3
 -0.06293495044073094    2    2    5    4
 0.09959035022588988    2    2    5    5
 -0.1021553695364484    2    2    6    1
 -3.034467632335559e-08    2    2    6    2
 1.303111584149761e-07    2    2    6    3
 -3.528442712179094e-08    2    2    6    4
 -3.945674258840913e-08    2    2    6    5
 0.2499990182626953    2    2    6    6
 0.2150774621560711    2    2    7    1
 -1.623116515864282e-07    2    2    7    2
 9.190502685918907e-09    2    2    7    3
 -8.084960720272765e-08    2    2    7    4
 3.925202104876055e-08    2    2    7    5
 -0.1172993829118448    2    2    7    6
 0.5324538418476399    2    2    7    7
 0.05888233510298146    2    2    8    1
 1.383649409058712e-09    2    2    8    2
 2.836031354514218e-08    2    2    8    3
 1.645462425235005e-09    2    2    8    4
 3.6340421259431e-08    2    2    8    5
 -0.0588673547629873    2    2    8    6
 -0.03251570859663749    2    2    8    7
 0.2473351280399258    2    2    8    8
 0.1051343638389883    2    2    9    1
 3.747971224713743e-08    2    2    9    2
 7.251848417931315e-08    2    2    9    3
 -4.424998225347166e-08    2    2    9    4
 5.707710907690848e-09    2    2    9    5
 -0.03395424367546408    2    2    9    6
 0.1401858452932404    2    2    9    7
 0.01180986978733304    2    2    9    8
 0.09284103888685723    2    2    9    9
 0.01254613186922148    2    2   10    1
 -2.79584731116932e-08    2    2   10    2
 -1.425719412607273e-08    2    2   10    3
 -2.374370242423376e-08    2    2   10    4
 1.305346166939528e-07    2    2   10    5
 0.1450676763438022    2    2   10    6
 -0.02800918822752104    2    2   10    7
 0.0003296879797293886    2    2   10    8
 -0.007563293504660636    2    2   10    9
 0.2641850257428573    2    2   10   10
 0.1075456860145094    2    2   11    1
 4.794440836467063e-08    2    2   11    2
 -2.491245205214872e-08    2    2   11    3
 2.553720754052491e-08    2    2   11    4
 2.529043652906035e-08    2    2   11    5
 -0.1503332941751197    2    2   11    6
 0.1102918656060722    2    2   11    7
 0.03332423531622775    2    2   11    8
 0.0562288608735347    2    2   11    9
 -0.06343233252113527    2    2   11   10
 0.1131859701558212    2    2   11   11
 1.675848862311485e-08    2    2   12    1
 0.250985885343301    2    2   12    2
 0.1586112656927093    2    2   12    3
 -0.07343380392814167    2    2   12    4
 -0.02435737410556888    2    2   12    5
 1.137577851072923e-07    2    2   12    6
 3.005240065086513e-08    2    2   12    7
 -1.924311879979313e-08    2    2   12    8
 4.706648714402182e-08    2    2   12    9
 2.047254448254574e-07    2    2   12   10
 4.247374159919805e-08    2    2   12   11
 0.5817510588325138    2    2   12   12
 -1.958895126135927e-08    2    2   13    1
 0.1586112675279782    2    2   13    2
 -0.0213082467426532    2    2   13    3
 -0.03019621738150665    2    2   13    4
 -0.01823032660290574    2    2   13    5
 -4.427009194230828e-08    2    2   13    6
 -1.068687297728234e-07    2    2   13    7
 -3.673431962966012e-08    2    2   13    8
 7.163231814743153e-08    2    2   13    9
 7.284863712702805e-08    2    2   13   10
 7.411866348841276e-08    2    2   13   11
 0.05152471267395366    2    2   13   12
 0.1625975827183629    2    2   13   13
 1.04665032444775e-07    2    2   14    1
 -0.0734338492153037    2    2   14    2
 -0.03019617589130159    2    2   14    3
 -0.1353640779153741    2    2   14    4
 0.07222985937340005    2    2   14    5
 6.522138083327617e-08    2    2   14    6
 1.109365758311336e-07    2    2   14    7
 1.100920479029097e-09    2    2   14    8
 -7.117322400550293e-09    2    2   14    9
 6.699839619093489e-09    2    2   14   10
 -5.956720181882594e-08    2    2   14   11
 -0.02660335268320201    2    2   14   12
 -0.01105960485094743    2    2   14   13
 0.1560608582810448    2    2   14   14
 8.45735270223623e-08    2    2   15    1
 -0.02435737695704467    2    2   15    2
 -0.01823036960765227    2    2   15    3
 0.07222985732152377    2    2   15    4
 -0.09431320486342766    2    2   15    5
 -1.162413185290705e-07    2    2   15    6
 8.11801789142009e-08    2    2   15    7
 -5.010548153710765e-09    2    2   15    8
 7.109052733381988e-09    2    2   15    9
 -2.37111444977058e-07    2    2   15   10
 5.598795676015032e-08    2    2   15   11
 -0.02992507037647948    2    2   15   12
 -0.004882264558463982    2    2   15   13
 -0.06293490495559642    2    2   15   14
 0.09959031090298233    2    2   15   15
 8.040554690380837e-08    2    2   16    1
 3.488882370628238e-08    2    2   16    2
 -9.622006483790193e-10    2    2   16    3
 1.078713824760542e-07    2    2   16    4
 9.754370753534921e-09    2    2   16    5
 -0.102370119822493    2    2   16    6
 0.1870575717265698    2    2   16    7
 -0.04804948517353041    2    2   16    8
 0.07759179237116051    2    2   16    9
 -0.1507139814296218    2    2   16   10
 0.08014775628924761    2    2   16   11
 -7.820063796333293e-08    2    2   16   12
 4.921402165437034e-08    2    2   16   13
 -9.552192648071671e-08    2    2   16   14
 6.854025223584999e-08    2    2   16   15
 0.2499998735958235    2    2   16   16
 1.128278583069665e-08    3    1    1    1
 2.911646033889777e-08    3    1    2    1
 6.168027033743021e-08    3    1    2    2
 0.2499999414280255    3    1    3    1
 -7.95882085836325e-09    3    1    3    2
 -6.038165314737042e-08    3    1    3    3
 -8.14613921295432e-09    3    1    4    1
 -4.214266483927023e-09    3    1    4    2
 -6.111852827831061e-09    3    1    4    3
 -5.255486005744909e-08    3    1    4    4
 -1.736709851077958e-08    3    1    5    1
 -3.451758894580149e-08    3    1    5    2
 1.890337431228203e-08    3    1    5    3
 -1.885827582373265e-08    3    1    5    4
 7.349809085978969e-09    3    1    5    5
 -5.471002003015577e-08    3    1    6    1
 -0.07498280795570209    3    1    6    2
 0.05291025640162032    3    1    6    3
 -0.0892637542296678    3    1    6    4
 -0.06322940032447771    3    1    6    5
 -1.250753519190656e-08    3    1    6    6
 -1.470868612684572e-08    3    1    7    1
 0.0890039724912471    3    1    7    2
 -0.1687453888240229    3    1    7    3
 -0.05808703565643331    3    1    7    4
 -0.005693466175241191    3    1    7    5
 3.587836900483084e-08    3    1    7    6
 -3.778510400479095e-09    3    1    7    7
 -4.528995274311447e-08    3    1    8    1
 -0.1224923231676575    3    1    8    2
 -0.1154084305858087    3    1    8    3
 0.01699106080679852    3    1    8    4
 -0.1310674175088158    3    1    8    5
 7.22187562318919e-08    3    1    8    6
 1.492822967551827e-08    3    1    8    7
 1.032838489222294e-07    3    1    8    8
 -3.271461406355543e-08    3    1    9    1
 -0.06265776314330759    3    1    9    2
 0.171836565250011    3    1    9    3
 -0.09450012268553601    3    1    9    4
 -0.03610326844377088    3    1    9    5
 -4.411217351399411e-08    3    1    9    6
 3.852053350205392e-08    3    1    9    7
 -2.424131179268275e-08    3    1    9    8
 -1.219806069762527e-08    3    1    9    9
 2.30805724922332e-08    3    1   10    1
 -0.08992911972909023    3    1   10    2
 -0.03988273123054886    3    1   10    3
 0.02989636456858999    3    1   10    4
 0.1076522129172267    3    1   10    5
 -3.644427142981245e-08    3    1   10    6
 1.61758108345372e-08    3    1   10    7
 -3.621407647319684e-08    3    1   10    8
 -4.916030753476524e-08    3    1   10    9
 -1.208656856293994e-07    3    1   10   10
 3.281443748051199e-08    3    1   11    1
 0.009362814941718613    3    1   11    2
 0.08440832735624716    3    1   11    3
 0.08525851462197974    3    1   11    4
 0.03447261866750403    3    1   11    5
 -4.700620110337506e-08    3    1   11    6
 1.440268595890346e-08    3    1   11    7
 -4.763840637242271e-08    3    1   11    8
 -2.612261966704883e-08    3    1   11    9
 -1.954834268227721e-08    3    1   11   10
 5.647052382589464e-08    3    1   11   11
 5.842244384010973e-08    3    1   12    1
 3.099226198609269e-09    3    1   12    2
 1.608341299642829e-09    3    1   12    3
 -5.12945219243638e-09    3    1   12    4
 1.714707680729706e-08    3    1   12    5
 -0.05424604687472307    3    1   12    6
 0.1209522890349824    3    1   12    7
 0.1390542513533967    3    1   12    8
 -0.02440540239719738    3    1   12    9
 0.05351947270728681    3    1   12   10
 0.01677186260282213    3    1   12   11
 1.442426904033601e-08    3    1   12   12
 -1.941759308615215e-08    3    1   13    1
 -6.341835912074927e-08    3    1   13    2
 -5.250709499477088e-08    3    1   13    3
 -7.007514983219145e-10    3    1   13    4
 -5.05585452569704e-08    3    1   13    5
 0.1583930609625284    3    1   13    6
 -0.08588560656608689    3    1   13    7
 0.07963281461321442    3    1   13    8
 0.2070134805227551    3    1   13    9
 0.02466037670291616    3    1   13   10
 0.02383266189913935    3    1   13   11
 5.469010159495776e-09    3    1   13   12
 2.964890882723771e-08    3    1   13   13
 2.546465690413988e-08    3    1   14    1
 4.888265974666971e-09    3    1   14    2
 1.957369413531415e-09    3    1   14    3
 9.267332487422214e-09    3    1   14    4
 -2.150451326596571e-08    3    1   14    5
 0.1123021416787764    3    1   14    6
 0.08427533296837329    3    1   14    7
 -0.00361982981836133    3    1   14    8
 -0.07536495505543116    3    1   14    9
 -0.01975151339313731    3    1   14   10
 -0.05409897481045058    3    1   14   11
 -3.99336053423861e-09    3    1   14   12
 8.403306702822211e-08    3    1   14   13
 1.053493331742896e-08    3    1   14   14
 1.443231171687349e-08    3    1   15    1
 8.813544515670802e-08    3    1   15    2
 -3.484907755736073e-09    3    1   15    3
 5.08451957943791e-08    3    1   15    4
 2.902375110459586e-08    3    1   15    5
 0.03833120563682841    3    1   15    6
 0.01678763913141317    3    1   15    7
 0.1352820614108017    3    1   15    8
 -0.0297765688260337    3    1   15    9
 -0.09462682842053594    3    1   15   10
 -0.07346164631627122    3    1   15   11
 8.757026786098392e-09    3    1   15   12
 -8.077242319316812e-10    3    1   15   13
 -3.370253357057849e-08    3    1   15   14
 -2.110625568191226e-08    3    1   15   15
 -3.432298039912579e-08    3    1   16    1
 4.164566159046836e-08    3    1   16    2
 -1.547490951603539e-08    3    1   16    3
 9.86227165987011e-09    3    1   16    4
 2.722462257545871e-08    3    1   16    5
 -3.539090914596434e-08    3    1   16    6
 3.622259159225457e-08    3    1   16    7
 -7.401191040999644e-09    3    1   16    8
 -2.088869659583946e-08    3    1   16    9
 -6.547618587803245e-10    3    1   16   10
 -2.297335654521798e-08    3    1   16   11
 -5.658604540527159e-08    3    1   16   12
 0.2499999833255062    3    1   16   13
 -4.850762190907146e-08    3    1   16   14
 1.341374336080619e-08    3    1   16   15
 -1.128278990076991e-08    3    1   16   16
 2.911646034236722e-08    3    2    1    1
 6.168027035012431e-08    3    2    2    1
 0.05152471165602571    3    2    2    2
 -7.958820855669021e-09    3    2    3    1
 0.1625976048183217    3    2    3    2
 -0.04495880177255854    3    2    3    3
 -4.214266487294511e-09    3    2    4    1
 -0.01105961522323822    3    2    4    2
 0.01389148935850084    3    2    4    3
 -0.03674739337550775    3    2    4    4
 -3.451758894261788e-08    3    2    5    1
 -0.00488225970138341    3    2    5    2
 0.05277191565975132    3    2    5    3
 0.08728537503877376    3    2    5    4
 0.03018151424844856    3    2    5    5
 -0.0749828079557021    3    2    6    1
 1.303111584139977e-07    3    2    6    2
 -1.310504460248695e-08    3    2    6    3
 -1.937071853933418e-08    3    2    6    4
 -1.827883394606005e-08    3    2    6    5
 -5.987296448785064e-08    3    2    6    6
 0.0890039724912471    3    2    7    1
 9.190502672432106e-09    3    2    7    2
 6.300180935435264e-08    3    2    7    3
 -1.634253978545536e-08    3    2    7    4
 -2.159972368017685e-08    3    2    7    5
 -0.0376289640907272    3    2    7    6
 0.0251838140783464    3    2    7    7
 -0.1224923231676575    3    2    8    1
 2.836031353733077e-08    3    2    8    2
 4.939673077634483e-08    3    2    8    3
 4.674288476991925e-08    3    2    8    4
 1.294559042255136e-08    3    2    8    5
 0.1333018581485283    3    2    8    6
 0.09030469771283489    3    2    8    7
 0.02335753357349537    3    2    8    8
 -0.06265776314330759    3    2    9    1
 7.251848417568411e-08    3    2    9    2
 -3.506595952664943e-08    3    2    9    3
 1.145852626531583e-08    3    2    9    4
 2.267122497475569e-08    3    2    9    5
 -0.08565239011228054    3    2    9    6
 0.1155562499218269    3    2    9    7
 0.02912561087952998    3    2    9    8
 -0.08549696868527164    3    2    9    9
 -0.08992911972909025    3    2   10    1
 -1.425719411333162e-08    3    2   10    2
 -5.761680261597775e-10    3    2   10    3
 5.361279796713395e-08    3    2   10    4
 5.897179665202993e-08    3    2   10    5
 -0.05302416868704404    3    2   10    6
 -0.09560961032626285    3    2   10    7
 -0.008701182206173467    3    2   10    8
 -0.02330044824811118    3    2   10    9
 -0.0003367324670683622    3    2   10   10
 0.009362814941718613    3    2   11    1
 -2.491245205575148e-08    3    2   11    2
 -1.096388935868505e-08    3    2   11    3
 2.255494653934242e-08    3    2   11    4
 3.562490402543631e-08    3    2   11    5
 -0.05245044174675635    3    2   11    6
 0.06656146380079467    3    2   11    7
 -0.08130932535244947    3    2   11    8
 -0.01308330390941049    3    2   11    9
 0.03074477867013856    3    2   11   10
 0.03729240560070777    3    2   11   11
 3.099226195010427e-09    3    2   12    1
 0.1586112656927093    3    2   12    2
 -0.02130827361387101    3    2   12    3
 -0.03019617156166212    3    2   12    4
 -0.01823034463302459    3    2   12    5
 -5.714713201987895e-08    3    2   12    6
 -4.023740835186816e-08    3    2   12    7
 -4.35418344357648e-08    3    2   12    8
 6.378599303486169e-08    3    2   12    9
 5.779848879346204e-08    3    2   12   10
 6.903239426763192e-08    3    2   12   11
 0.0515245167607275    3    2   12   12
 -6.341835913060787e-08    3    2   13    1
 -0.02130824674265319    3    2   13    2
 -0.1769635324390093    3    2   13    3
 0.02206166779279372    3    2   13    4
 -0.03305364200263064    3    2   13    5
 -3.849648440255521e-08    3    2   13    6
 5.289786807202771e-08    3    2   13    7
 -1.784117530723349e-08    3    2   13    8
 -1.025106410900761e-07    3    2   13    9
 3.783051665900881e-08    3    2   13   10
 8.646597869490383e-09    3    2   13   11
 0.16259764504793    3    2   13   12
 -0.04495870366439701    3    2   13   13
 4.88826597435169e-09    3    2   14    1
 -0.0301961758913016    3    2   14    2
 0.02206171810766322    3    2   14    3
 0.0477570973177213    3    2   14    4
 -0.08696228493810043    3    2   14    5
 5.208546767860451e-08    3    2   14    6
 3.904214832960847e-09    3    2   14    7
 1.566812835267346e-08    3    2   14    8
 -2.640982698101048e-08    3    2   14    9
 -7.413235668522484e-08    3    2   14   10
 -3.093029636406127e-08    3    2   14   11
 -0.01105964325413593    3    2   14   12
 0.0138914876723213    3    2   14   13
 -0.03674736893176236    3    2   14   14
 8.813544516104292e-08    3    2   15    1
 -0.01823036960765228    3    2   15    2
 -0.03305360015088742    3    2   15    3
 -0.0869622753468636    3    2   15    4
 -0.02940468333127097    3    2   15    5
 1.396804352700218e-08    3    2   15    6
 5.066305752563865e-08    3    2   15    7
 -7.516495434617439e-08    3    2   15    8
 1.692460239698956e-08    3    2   15    9
 -4.875112605174888e-08    3    2   15   10
 -1.631261959644791e-08    3    2   15   11
 -0.00488224270951546    3    2   15   12
 0.05277192753718284    3    2   15   13
 0.08728533741994125    3    2   15   14
 0.03018152507902359    3    2   15   15
 4.164566158463793e-08    3    2   16    1
 -9.622006510355735e-10    3    2   16    2
 -2.157093502344172e-08    3    2   16    3
 3.125664576301174e-08    3    2   16    4
 8.397195605685124e-08    3    2   16    5
 -0.05424600880936269    3    2   16    6
 0.1209522168298831    3    2   16    7
 0.1390542361860218    3    2   16    8
 -0.02440536620178748    3    2   16    9
 0.0535194446335378    3    2   16   10
 0.01677185643036106    3    2   16   11
 3.504258874303739e-08    3    2   16   12
 -3.239822227561734e-08    3    2   16   13
 -9.309388979401132e-09    3    2   16   14
 -4.98416125486975e-08    3    2   16   15
 -2.134370703127432e-08    3    2   16   16
 0.2499999414280255    3    3    1    1
 -7.958820862607915e-09    3    3    2    1
 0.1625976048183217    3    3    2    2
 -6.038165312869227e-08    3    3    3    1
 -0.04495880177255853    3    3    3    2
 0.5813473391945234    3    3    3    3
 -6.111852827162576e-09    3    3    4    1
 0.01389148935850085    3    3    4    2
 -0.02846544223438816    3    3    4    3
 0.1148955934601159    3    3    4    4
 1.890337432254908e-08    3    3    5    1
 0.05277191565975131    3    3    5    2
 0.02061599391390418    3    3    5    3
 0.05326838323386857    3    3    5    4
 0.1411594084596551    3    3    5    5
 0.05291025640162032    3    3    6    1
 -1.310504459316557e-08    3    3    6    2
 -8.238197114237547e-08    3    3    6    3
 3.913306556681487e-08    3    3    6    4
 -5.136247236779516e-08    3    3    6    5
 0.2499998158512221    3    3    6    6
 -0.1687453888240229    3    3    7    1
 6.300180934422624e-08    3    3    7    2
 6.882473049181296e-08    3    3    7    3