 &FCI NORB=  16,NELEC=12,MS2=0,
  ORBSYM=1,1,1,1,1,1,1,1,1,1,1,1,1,1,1,1,
  ISYM=1,
 &END
 0.9997365963142582    1    1    1    1
 0.007347948313299177    1    1    2    1
 0.009854818922206821    1    1    2    2
 -0.002999858101290176    1    1    3    1
 -0.0003931313230870431    1    1    3    2
 0.2464016831842595    1    1    3    3
 0.003317728076611154    1    1    4    1
 0.002896409159995632    1    1    4    2
 -0.02921618385063601    1    1    4    3
 0.004382947946157905    1    1    4    4
 -0.001029263072043748    1    1    5    1
 -0.04812873097434468    1    1    5    2
 -0.001780337389559242    1    1    5    3
 -0.01385716034484622    1    1    5    4
 0.2394262327328351    1    1    5    5
 0.001130383538881109    1    1    6    1
 -0.0005210649559666793    1    1    6    2
 -0.004751303603141455    1    1    6    3
 0.0004100084408773406    1    1    6    4
 0.002700319244868356    1    1    6    5
 0.0001975028632088259    1    1    6    6
 -0.003573571791470455    1    1    7    1
 0.02254601496675111    1    1    7    2
 0.001407785413960977    1    1    7    3
 0.006434544685630835    1    1    7    4
 -0.1124893758445536    1    1    7    5
 -0.001285716787263717    1    1    7    6
 0.05308421230124097    1    1    7    7
 4.327418051972701e-05    1    1    8    1
 0.001493679266826778    1    1    8    2
 0.007190442527948063    1    1    8    3
 -0.0003937177059593411    1    1    8    4
 -0.007864728255327925    1    1    8    5
 -0.0002138871967735122    1    1    8    6
 0.003660749932434294    1    1    8    7
 0.0005848520947062245    1    1    8    8
 -0.0125402419327336    1    1    9    1
 0.001183589251484894    1    1    9    2
 -0.3030032862182919    1    1    9    3
 0.03612684481129933    1    1    9    4
 -0.002289511818030935    1    1    9    5
 0.005764326656709556    1    1    9    6
 -0.0003123705570593645    1    1    9    7
 -0.006926387944951862    1    1    9    8
 0.875702559719102    1    1    9    9
 -0.011320094346173    1    1   10    1
 0.07175325156285721    1    1   10    2
 0.005400929266194641    1    1   10    3
 0.02029286384069415    1    1   10    4
 -0.3575359066613167    1    1   10    5
 -0.004108710070698429    1    1   10    6
 0.1681502054095635    1    1   10    7
 0.01176058964775745    1    1   10    8
 -0.0128473744518154    1    1   10    9
 0.5346362721857335    1    1   10   10
 0.003638716224198532    1    1   11    1
 -0.02219175796067639    1    1   11    2
 0.001751087619173488    1    1   11    3
 -0.006692525191764114    1    1   11    4
 0.110490688080104    1    1   11    5
 0.001198467867067973    1    1   11    6
 -0.05193761331670941    1    1   11    7
 -0.003568057817259607    1    1   11    8
 -0.007237465520004272    1    1   11    9
 -0.1649854900801767    1    1   11   10
 0.05114170617106243    1    1   11   11
 0.003681103215273393    1    1   12    1
 -0.02341002026680982    1    1   12    2
 -0.002011356209602802    1    1   12    3
 -0.006604896319737641    1    1   12    4
 0.1166174681321971    1    1   12    5
 0.00136469925870067    1    1   12    6
 -0.05482404583107869    1    1   12    7
 -0.003863100656954785    1    1   12    8
 -0.003261221375840391    1    1   12    9
 -0.174153613242027    1    1   12   10
 0.05384655829124784    1    1   12   11
 0.05691247706744089    1    1   12   12
 -0.001960726983859848    1    1   13    1
 -0.001047540285368444    1    1   13    2
 -0.05219031035527825    1    1   13    3
 0.0058126674780883    1    1   13    4
 0.005984237186103736    1    1   13    5
 0.001068103375664267    1    1   13    6
 -0.002911470121110687    1    1   13    7
 -0.001713455946274939    1    1   13    8
 0.06350221939100616    1    1   13    9
 -0.009499090613274187    1    1   13   10
 0.002208659878545616    1    1   13   11
 0.003152890910866476    1    1   13   12
 0.01132863186171371    1    1   13   13
 -0.002154484669021923    1    1   14    1
 0.0001974919117977469    1    1   14    2
 -0.05203313209739376    1    1   14    3
 0.00618376898750435    1    1   14    4
 -0.000218066105267259    1    1   14    5
 0.0009958850910583635    1    1   14    6
 3.035938083898646e-06    1    1   14    7
 -0.001502839161953005    1    1   14    8
 0.06442040360135004    1    1   14    9
 -0.0001944107808502316    1    1   14   10
 -0.0006596886089068802    1    1   14   11
 0.0001224134217103998    1    1   14   12
 0.01102610704605527    1    1   14   13
 0.01105350999145267    1    1   14   14
 -0.003711229365366823    1    1   15    1
 0.022859895410867    1    1   15    2
 -0.0005985382241205154    1    1   15    3
 0.006771362392991067    1    1   15    4
 -0.114166824160688    1    1   15    5
 -0.001266078833085018    1    1   15    6
 0.05365804901826554    1    1   15    7
 0.00373578987018552    1    1   15    8
 -0.0001116288491449412    1    1   15    9
 0.1706070178988655    1    1   15   10
 -0.05270497692573271    1    1   15   11
 -0.05560041272451214    1    1   15   12
 -0.00254202089785556    1    1   15   13
 0.0004087305372602332    1    1   15   14
 0.05451960671448337    1    1   15   15
 -0.01226033050387426    1    1   16    1
 0.0008970704910966087    1    1   16    2
 -0.295361145579121    1    1   16    3
 0.03514127320191907    1    1   16    4
 -0.0009586720236568174    1    1   16    5
 0.005633030304935995    1    1   16    6
 0.0004460492697257463    1    1   16    7
 -0.01023559850239019    1    1   16    8
 -0.135760917564639    1    1   16    9
 0.01130261122306897    1    1   16   10
 -0.0006315581628210167    1    1   16   11
 0.00430333184472248    1    1   16   12
 0.0632086745132365    1    1   16   13
 0.06204643824137603    1    1   16   14
 0.005393151891852957    1    1   16   15
 0.8510363899301436    1    1   16   16
 0.007347948313299147    2    1    1    1
 0.009854818922206812    2    1    2    1
 -0.008030693308655129    2    1    2    2
 -0.0003931313230870434    2    1    3    1
 0.00309978639656899    2    1    3    2
 0.0005154964538672593    2    1    3    3
 0.002896409159995615    2    1    4    1
 -0.0003897199511191822    2    1    4    2
 -0.0002010153860138065    2    1    4    3
 -0.0004950440332189669    2    1    4    4
 -0.04812873097434465    2    1    5    1
 0.000841479176167239    2    1    5    2
 0.001295605251217695    2    1    5    3
 -0.0002497242449909109    2    1    5    4
 0.001189223808556646    2    1    5    5
 -0.000521064955966666    2    1    6    1
 -1.554297346523768e-05    2    1    6    2
 -5.58334553954591e-06    2    1    6    3
 5.283412345022943e-07    2    1    6    4
 1.157758963454015e-06    2    1    6    5
 -0.0005269613220851197    2    1    6    6
 0.02254601496675111    2    1    7    1
 0.004908634498082585    2    1    7    2
 0.002094169047660805    2    1    7    3
 -2.372364818735446e-05    2    1    7    4
 -0.004457154129855897    2    1    7    5
 -9.377911873157595e-05    2    1    7    6
 -0.01132721090572276    2    1    7    7
 0.001493679266826787    2    1    8    1
 0.004651375531769804    2    1    8    2
 -0.002258910190054056    2    1    8    3
 0.0002179761538140682    2    1    8    4
 0.0006635876154638507    2    1    8    5
 1.694619377797679e-05    2    1    8    6
 0.003215191285557456    2    1    8    7
 -0.003182564959979328    2    1    8    8
 0.001183589251484905    2    1    9    1
 0.00860107287584623    2    1    9    2
 -0.003329425731900192    2    1    9    3
 0.002385585592980569    2    1    9    4
 -0.03382629377186121    2    1    9    5
 -0.0003161876795269814    2    1    9    6
 0.01722369828499204    2    1    9    7
 -0.0001333293904475638    2    1    9    8
 0.008783896653022042    2    1    9    9
 0.07175325156285718    2    1   10    1
 0.001155689181718918    2    1   10    2
 -0.0007886554033295716    2    1   10    3
 0.0006849650708670739    2    1   10    4
 -0.00302028256039983    2    1   10    5
 6.530208951131685e-05    2    1   10    6
 0.000640592346107222    2    1   10    7
 0.0003558350167501796    2    1   10    8
 0.05084827316983052    2    1   10    9
 0.001071163022950548    2    1   10   10
 -0.02219175796067637    2    1   11    1
 0.0003191678306601921    2    1   11    2
 0.0002950968374210161    2    1   11    3
 -8.441645278564454e-05    2    1   11    4
 0.001181828612408334    2    1   11    5
 -0.0004671285897996622    2    1   11    6
 -0.001484159703457588    2    1   11    7
 -7.669899131179142e-05    2    1   11    8
 -0.01584117555393609    2    1   11    9
 -0.001390566983667291    2    1   11   10
 -0.0003467349822815227    2    1   11   11
 -0.02341002026680984    2    1   12    1
 0.0001373288175680834    2    1   12    2
 0.0003522735264958977    2    1   12    3
 -0.0001041289345525411    2    1   12    4
 0.001194002957512371    2    1   12    5
 0.0002560116209313952    2    1   12    6
 -0.001475400603763211    2    1   12    7
 -8.41213423205231e-05    2    1   12    8
 -0.0166428766408955    2    1   12    9
 -0.001498856156009138    2    1   12   10
 0.0003452737567229059    2    1   12   11
 -7.333064337865666e-06    2    1   12   12
 -0.001047540285368448    2    1   13    1
 -0.001779725968010813    2    1   13    2
 0.0003579268047265196    2    1   13    3
 -0.0003812987668999969    2    1   13    4
 -0.0001345066154194129    2    1   13    5
 -1.139479547470404e-05    2    1   13    6
 -0.001293040009211261    2    1   13    7
 0.00117328405442671    2    1   13    8
 0.0001592553928004125    2    1   13    9
 -9.342028175695004e-06    2    1   13   10
 0.0001221479814372452    2    1   13   11
 9.671877773469929e-05    2    1   13   12
 -0.0006504490084484298    2    1   13   13
 0.0001974919117977464    2    1   14    1
 -0.001696181859828259    2    1   14    2
 0.000459110866288192    2    1   14    3
 0.0003625626183690356    2    1   14    4
 -0.0004515039965333856    2    1   14    5
 -3.865684616351726e-06    2    1   14    6
 -0.001153701856858796    2    1   14    7
 0.001187734269710151    2    1   14    8
 0.001059110938471348    2    1   14    9
 -0.0001495978126250561    2    1   14   10
 -5.542854865883497e-05    2    1   14   11
 -8.590887024114108e-05    2    1   14   12
 -9.406502081559689e-05    2    1   14   13
 -0.000607159235455667    2    1   14   14
 0.02285989541086702    2    1   15    1
 0.003448115544858734    2    1   15    2
 -0.002649885966042145    2    1   15    3
 0.0003059701576171156    2    1   15    4
 -0.0003617516276425912    2    1   15    5
 4.166700318035146e-05    2    1   15    6
 0.001098306045112622    2    1   15    7
 -0.003158362771832575    2    1   15    8
 0.01504841512324716    2    1   15    9
 0.0008876386193701982    2    1   15   10
 -0.0005031087742670525    2    1   15   11
 -0.0004385314984377511    2    1   15   12
 0.001123784779856427    2    1   15   13
 0.001305541660659267    2    1   15   14
 -0.001379898808109278    2    1   15   15
 0.0008970704910966404    2    1   16    1
 -0.005084065319300072    2    1   16    2
 -0.003777053299776763    2    1   16    3
 -0.00156301340716171    2    1   16    4
 0.03424141325499163    2    1   16    5
 0.0004528972236275121    2    1   16    6
 -0.01470141127574131    2    1   16    7
 -0.002407464176462954    2    1   16    8
 -0.002638727694871493    2    1   16    9
 -0.0504987542559464    2    1   16   10
 0.01564779350120127    2    1   16   11
 0.01659447042143243    2    1   16   12
 0.001862323918026345    2    1   16   13
 0.0009778165403333326    2    1   16   14
 -0.01735162782973898    2    1   16   15
 0.007646321376601274    2    1   16   16
 0.009854818922206784    2    2    1    1
 -0.008030693308655107    2    2    2    1
 0.9804401077453255    2    2    2    2
 0.003099786396568983    2    2    3    1
 -0.0001083163629730543    2    2    3    2
 0.2370080388472712    2    2    3    3
 -0.0003897199511191744    2    2    4    1
 -0.006750058057317414    2    2    4    2
 -0.02692740495329479    2    2    4    3
 0.01380306313933798    2    2    4    4
 0.0008414791761672028    2    2    5    1
 0.04797159599091207    2    2    5    2
 -0.001715765541018375    2    2    5    3
 -0.01463354588854787    2    2    5    4
 0.2490874759191124    2    2    5    5
 -1.554297346525737e-05    2    2    6    1
 -0.004308737198515687    2    2    6    2
 -0.004376230897395893    2    2    6    3
 0.0004300822295717124    2    2    6    4
 0.001739828052583856    2    2    6    5
 0.009806344618708589    2    2    6    6
 0.004908634498082572    2    2    7    1
 -0.1907875568414458    2    2    7    2
 -0.007564300718362249    2    2    7    3
 -0.0174691443518454    2    2    7    4
 0.3258933155304317    2    2    7    5
 0.004436885974892289    2    2    7    6
 1.006882604094288    2    2    7    7
 0.00465137553176984    2    2    8    1
 -0.005462601147267114    2    2    8    2
 0.3287198970146459    2    2    8    3
 -0.03936438596223458    2    2    8    4
 0.004273284202307146    2    2    8    5
 -0.006481059495928837    2    2    8    6
 0.004969490410920593    2    2    8    7
 0.4566072640483373    2    2    8    8
 0.00860107287584623    2    2    9    1
 -0.00162797503943228    2    2    9    2
 0.1233581196307563    2    2    9    3
 -0.01467447305060681    2    2    9    4
 0.0005497142560462884    2    2    9    5
 -0.002296900542599691    2    2    9    6
 0.001259040896995989    2    2    9    7
 0.1714965681920102    2    2    9    8
 0.06936212249591091    2    2    9    9
 0.001155689181718921    2    2   10    1
 -0.008046958668601598    2    2   10    2
 -0.009810796257563797    2    2   10    3
 6.525372749619513e-06    2    2   10    4
 0.01266161782412788    2    2   10    5
 0.0002879146243932589    2    2   10    6
 0.0248228833063633    2    2   10    7
 -0.01280457436479081    2    2   10    8
 -0.003689975940145945    2    2   10    9
 0.02054510256280684    2    2   10   10
 0.0003191678306601834    2    2   11    1
 -0.03154887903416904    2    2   11    2
 0.003692968171230666    2    2   11    3
 -0.003495634543581245    2    2   11    4
 0.04819590635482855    2    2   11    5
 0.008055940731152619    2    2   11    6
 0.08527183210057998    2    2   11    7
 0.006459455702591777    2    2   11    8
 0.002235567286826728    2    2   11    9
 0.00304605060969122    2    2   11   10
 0.02752310768812277    2    2   11   11
 0.0001373288175680985    2    2   12    1
 -0.02965755659144743    2    2   12    2
 -0.005663650957597076    2    2   12    3
 -0.002044100230009615    2    2   12    4
 0.04555613125436549    2    2   12    5
 -0.005452221397485846    2    2   12    6
 0.07438854561721944    2    2   12    7
 -0.005997340400184057    2    2   12    8
 -0.002661583868342371    2    2   12    9
 0.003101708482109995    2    2   12   10
 0.0160292240587445    2    2   12   11
 0.02434598723148356    2    2   12   12
 -0.001779725968010788    2    2   13    1
 0.001429516880282248    2    2   13    2
 -0.1238595538898628    2    2   13    3
 0.02161999735575707    2    2   13    4
 -0.0005354080710800147    2    2   13    5
 0.002424153557973019    2    2   13    6
 -0.002037357929711237    2    2   13    7
 -0.1731607168970616    2    2   13    8
 -0.06504231697588067    2    2   13    9
 0.004308927906653265    2    2   13   10
 -0.002631828123558558    2    2   13   11
 0.002299517831299518    2    2   13   12
 0.07049143523108817    2    2   13   13
 -0.001696181859828267    2    2   14    1
 0.0003643834931477352    2    2   14    2
 -0.1268570549669859    2    2   14    3
 0.008124963451393569    2    2   14    4
 0.0005856310011975545    2    2   14    5
 0.002284777230913939    2    2   14    6
 -0.0002925876905364012    2    2   14    7
 -0.1749471725843412    2    2   14    8
 -0.06571233608930943    2    2   14    9
 0.005369045619497972    2    2   14   10
 -0.002037408501798425    2    2   14   11
 0.002925503564669123    2    2   14   12
 0.06154311128171955    2    2   14   13
 0.0719925076228887    2    2   14   14
 0.003448115544858741    2    2   15    1
 -0.1506460697311575    2    2   15    2
 -0.0005709645695197524    2    2   15    3
 -0.01069178657123349    2    2   15    4
 0.1951808610475376    2    2   15    5
 0.002853599593567418    2    2   15    6
 -0.1270088135542336    2    2   15    7
 0.00239709183233259    2    2   15    8
 0.0009599733128714403    2    2   15    9
 0.009210562410139558    2    2   15   10
 0.04488276798354755    2    2   15   11
 0.04632805874782349    2    2   15   12
 0.002335519395106725    2    2   15   13
 0.003710216289199981    2    2   15   14
 0.6806075748727218    2    2   15   15
 -0.005084065319300089    2    2   16    1
 -0.0002228345069717976    2    2   16    2
 0.1257817221642878    2    2   16    3
 -0.01493657538253754    2    2   16    4
 -0.0006896426731493598    2    2   16    5
 -0.002379272073531099    2    2   16    6
 -0.001540217973660975    2    2   16    7
 0.1744710636765799    2    2   16    8
 0.06067953323336306    2    2   16    9
 -0.005990111499923827    2    2   16   10
 0.002142718705416696    2    2   16   11
 -0.002774428201754144    2    2   16   12
 -0.06617008418257324    2    2   16   13
 -0.06692918255431021    2    2   16   14
 -0.004429859055713494    2    2   16   15
 0.07164244496039321    2    2   16   16
 -0.002999858101290098    3    1    1    1
 -0.0003931313230870616    3    1    2    1
 0.003099786396569002    3    1    2    2
 0.2464016831842595    3    1    3    1
 0.0005154964538672655    3    1    3    2
 -0.003179688819806075    3    1    3    3
 -0.02921618385063605    3    1    4    1
 -0.0002010153860138235    3    1    4    2
 0.001281394278979259    3    1    4    3
 0.002752466505210303    3    1    4    4
 -0.001780337389559259    3    1    5    1
 0.001295605251217691    3    1    5    2
 -0.002431774468886376    3    1    5    3
 0.0009470134454890104    3    1    5    4
 -0.003017321636085433    3    1    5    5
 -0.004751303603141461    3    1    6    1
 -5.583345539546365e-06    3    1    6    2
 0.0001624179484080197    3    1    6    3
 -2.583332446014228e-05    3    1    6    4
 2.429001348291731e-05    3    1    6    5
 0.003344695254257523    3    1    6    6
 0.001407785413960985    3    1    7    1
 0.002094169047660811    3    1    7    2
 -0.001026538565509147    3    1    7    3
 -0.0001800709599708347    3    1    7    4
 0.001980368985214    3    1    7    5
 4.494234803822016e-05    3    1    7    6
 0.00102500868847613    3    1    7    7
 0.007190442527948074    3    1    8    1
 -0.002258910190054056    3    1    8    2
 -0.0008055027457352541    3    1    8    3
 0.0001553690668104379    3    1    8    4
 -0.0004234650721013867    3    1    8    5
 0.0004263310697387084    3    1    8    6
 -0.001812043520415369    3    1    8    7
 0.006666257960451483    3    1    8    8
 -0.3030032862182919    3    1    9    1
 -0.003329425731900185    3    1    9    2
 -0.166832457910402    3    1    9    3
 0.01869263097323414    3    1    9    4
 0.003608578698701478    3    1    9    5
 0.002796388900656169    3    1    9    6
 -0.001878087115566807    3    1    9    7
 -0.004290940845270393    3    1    9    8
 0.4168130171976095    3    1    9    9
 0.005400929266194653    3    1   10    1
 -0.0007886554033295806    3    1   10    2
 0.004440523991602893    3    1   10    3
 -0.0003974319708567549    3    1   10    4
 0.004541248911649084    3    1   10    5
 -8.109223026627131e-06    3    1   10    6
 -0.002046221777040342    3    1   10    7
 -0.0001312424050275258    3    1   10    8
 -0.008981902468896331    3    1   10    9
 -0.006970594265017877    3    1   10   10
 0.001751087619173479    3    1   11    1
 0.0002950968374210196    3    1   11    2
 0.001092587994121751    3    1   11    3
 0.0001535048688881381    3    1   11    4
 -0.00144199522497269    3    1   11    5
 -0.002487010027165657    3    1   11    6
 0.0006876328992958161    3    1   11    7
 -8.081480850618934e-05    3    1   11    8
 -0.002409142418086294    3    1   11    9
 0.002144967726067328    3    1   11   10
 0.0009183988590574579    3    1   11   11
 -0.002011356209602799    3    1   12    1
 0.0003522735264959003    3    1   12    2
 0.001177818835023589    3    1   12    3
 8.010287370743496e-05    3    1   12    4
 -0.00159716741590129    3    1   12    5
 0.00225610369244194    3    1   12    6
 0.0007989242229004915    3    1   12    7
 0.0002660665671277367    3    1   12    8
 -0.0001291187948181895    3    1   12    9
 0.00222843055661061    3    1   12   10
 -0.002403555869124083    3    1   12   11
 0.0009292197956559584    3    1   12   12
 -0.05219031035527824    3    1   13    1
 0.0003579268047265125    3    1   13    2
 0.001404648805764949    3    1   13    3
 -0.003153388942124748    3    1   13    4
 0.0005978476741811977    3    1   13    5
 -4.580541877711049e-06    3    1   13    6
 0.0005156483517532924    3    1   13    7
 0.0001933727710526567    3    1   13    8
 0.03597715161525703    3    1   13    9
 -0.0004175649494516965    3    1   13   10
 -0.0001392373194922014    3    1   13   11
 -7.475568022416423e-05    3    1   13   12
 0.005051272487998963    3    1   13   13
 -0.05203313209739373    3    1   14    1
 0.0004591108662881802    3    1   14    2
 0.001153768698465247    3    1   14    3
 0.001697560528806828    3    1   14    4
 0.0005342588017450055    3    1   14    5
 7.007377419262245e-05    3    1   14    6
 0.0007153771704934391    3    1   14    7
 0.0001366870940171167    3    1   14    8
 0.03615718004429657    3    1   14    9
 -0.001199633584409607    3    1   14   10
 -0.0003427719937812053    3    1   14   11
 -0.0002643452336087908    3    1   14   12
 0.00155385633833161    3    1   14   13
 0.004100695846483596    3    1   14   14
 -0.0005985382241205395    3    1   15    1
 -0.002649885966042159    3    1   15    2
 0.002285329931830643    3    1   15    3
 -0.0004959110427395182    3    1   15    4
 0.001057983757371519    3    1   15    5
 -3.329528830780297e-05    3    1   15    6
 -0.002439135567387733    3    1   15    7
 0.001599797654470626    3    1   15    8
 -0.0001331182455933711    3    1   15    9
 -0.002231348123834839    3    1   15   10
 0.0007131975945816839    3    1   15   11
 0.0007179905171436391    3    1   15   12
 -0.0009655292939187025    3    1   15   13
 -0.0007774354059467053    3    1   15   14
 0.0009328010117101353    3    1   15   15
 -0.2953611455791209    3    1   16    1
 -0.003777053299776781    3    1   16    2
 0.1814020852550277    3    1   16    3
 -0.02256701577696664    3    1   16    4
 0.001286239595165126    3    1   16    5
 -0.003896449287703614    3    1   16    6
 -2.688959665982074e-06    3    1   16    7
 0.005928837386550647    3    1   16    8
 0.006065908714322783    3    1   16    9
 -0.00221824767309684    3    1   16   10
 9.02869561652431e-05    3    1   16   11
 -0.002953757275021529    3    1   16   12
 -0.03788635335391912    3    1   16   13
 -0.03739545083414401    3    1   16   14
 -0.001269801302887581    3    1   16   15
 -0.4294661571812813    3    1   16   16
 -0.0003931313230870566    3    2    1    1
 0.003099786396568991    3    2    2    1
 -0.0001083163629730912    3    2    2    2
 0.0005154964538672765    3    2    3    1
 0.2370080388472713    3    2    3    2
 0.0002585409644861287    3    2    3    3
 -0.0002010153860138073    3    2    4    1
 -0.0269274049532948    3    2    4    2
 -0.002786941437381398    3    2    4    3
 0.001502390484955008    3    2    4    4
 0.001295605251217685    3    2    5    1
 -0.001715765541018379    3    2    5    2
 0.0467106680931377    3    2    5    3
 -0.01120199710422725    3    2    5    4
 -0.001008234700202453    3    2    5    5
 -5.58334553952822e-06    3    2    6    1
 -0.004376230897395888    3    2    6    2
 0.0005075278823369505    3    2    6    3
 -1.554447875838695e-05    3    2    6    4
 -0.001825129325714685    3    2    6    5
 -0.0002511518601592456    3    2    6    6
 0.002094169047660785    3    2    7    1
 -0.007564300718362242    3    2    7    2
 0.1709783314877888    3    2    7    3
 -0.01694550094719626    3    2    7    4
 -0.002172569300990223    3    2    7    5
 -0.003049467188408397    3    2    7    6
 -0.009183462315146893    3    2    7    7
 -0.002258910190054104    3    2    8    1
 0.328719897014646    3    2    8    2
 0.001963268461673753    3    2    8    3
 -0.005463426226285625    3    2    8    4
 0.06583437673816707    3    2    8    5
 -0.002830745945809054    3    2    8    6
 0.2367312272142303    3    2    8    7
 0.003752457516765291    3    2    8    8
 -0.003329425731900202    3    2    9    1
 0.1233581196307562    3    2    9    2
 -0.0007869761933237043    3    2    9    3
 -0.001917460987347089    3    2    9    4
 0.02516221606585344    3    2    9    5
 0.0002513968759922578    3    2    9    6
 0.0887073810907527    3    2    9    7
 0.001513550953825064    3    2    9    8
 0.003723353308071427    3    2    9    9
 -0.0007886554033295749    3    2   10    1
 -0.009810796257563804    3    2   10    2
 0.0004895024860968245    3    2   10    3
 -0.007821209957599906    3    2   10    4
 -0.002268586256828007    3    2   10    5
 -6.227911223723705e-05    3    2   10    6
 -0.007111312376757092    3    2   10    7
 0.001889164559759573    3    2   10    8
 -4.245486518154855e-05    3    2   10    9
 -5.211028323880012e-05    3    2   10   10
 0.0002950968374210129    3    2   11    1
 0.003692968171230673    3    2   11    2
 0.0006524404113863536    3    2   11    3
 -0.003144027762949666    3    2   11    4
 -1.201198801497554e-05    3    2   11    5
 0.00124601630825922    3    2   11    6
 0.002676337684241829    3    2   11    7
 0.003836418639967426    3    2   11    8
 0.0007468262381907847    3    2   11    9
 5.849392769826263e-05    3    2   11   10
 0.001738908364950222    3    2   11   11
 0.0003522735264959101    3    2   12    1
 -0.005663650957597066    3    2   12    2
 0.000423518793129882    3    2   12    3
 -0.003083678663719861    3    2   12    4
 -0.0006587215377654494    3    2   12    5
 0.0009075767251797167    3    2   12    6
 -0.004017686551265613    3    2   12    7
 -0.001419138385276111    3    2   12    8
 0.0005711896693940787    3    2   12    9
 5.821564070978296e-06    3    2   12   10
 0.0001205831439318462    3    2   12   11
 -0.001592438715056775    3    2   12   12
 0.0003579268047265093    3    2   13    1
 -0.1238595538898628    3    2   13    2
 -0.001847088918081898    3    2   13    3
 0.004062091798634072    3    2   13    4
 -0.02882288612071919    3    2   13    5
 -0.0002331983414282884    3    2   13    6
 -0.08752564702700374    3    2   13    7
 -0.002718639966498512    3    2   13    8
 -0.0008975960396306606    3    2   13    9
 -0.006270640567875842    3    2   13   10
 -0.002727545997043345    3    2   13   11
 -0.002511888307490494    3    2   13   12
 -2.733861055245335e-05    3    2   13   13
 0.0004591108662881881    3    2   14    1
 -0.1268570549669859    3    2   14    2
 -0.0006410048860956989    3    2   14    3
 0.002875269299705382    3    2   14    4
 -0.02110050159852484    3    2   14    5
 -0.0001520464186103205    3    2   14    6
 -0.09302016958760957    3    2   14    7
 -0.00282313735620587    3    2   14    8
 -0.0003909763589610676    3    2   14    9
 0.004917527729653675    3    2   14   10
 0.001564529786396522    3    2   14   11
 0.001855585202899067    3    2   14   12
 0.001181483697470365    3    2   14   13
 0.002987433127313155    3    2   14   14
 -0.002649885966042129    3    2   15    1
 -0.0005709645695197573    3    2   15    2
 -0.1706202727074072    3    2   15    3
 0.02331354625947471    3    2   15    4
 0.001250257857352083    3    2   15    5
 0.003508268683846279    3    2   15    6
 0.004468080916429215    3    2   15    7
 -0.2373773858629867    3    2   15    8
 -0.08936218148673854    3    2   15    9
 0.00694646178827362    3    2   15   10
 -0.002527704028625645    3    2   15   11
 0.003878319436757229    3    2   15   12
 0.09219317220355466    3    2   15   13
 0.0888080418723322    3    2   15   14
 0.001618013732415965    3    2   15   15
 -0.003777053299776743    3    2   16    1
 0.1257817221642877    3    2   16    2
 0.003152295000633542    3    2   16    3
 -0.002148115794358724    3    2   16    4
 0.02471561002837465    3    2   16    5
 0.0001428575672206446    3    2   16    6
 0.09073754357112697    3    2   16    7
 0.002746327700328466    3    2   16    8
 0.0008492393576878945    3    2   16    9
 0.001330747711533677    3    2   16   10
 0.0003764149332500983    3    2   16   11
 0.0001027730453525794    3    2   16   12
 -0.001850059576526568    3    2   16   13
 -0.001634519970924554    3    2   16   14
 -0.0905839019348008    3    2   16   15
 -0.002964913328542707    3    2   16   16
 0.2464016831842595    3    3    1    1
 0.0005154964538672973    3    3    2    1
 0.2370080388472713    3    3    2    2
 -0.00317968881980606    3    3    3    1
 0.0002585409644861437    3    3    3    2
 0.5072007899252842    3    3    3    3
 0.001281394278979225    3    3    4    1
 -0.002786941437381378    3    3    4    2
 0.0291190552911999    3    3    4    3
 0.2490874928279775    3    3    4    4
 -0.002431774468886387    3    3    5    1
 0.04671066809313769    3    3    5    2
 0.001927250110124797    3    3    5    3
 0.0138247376289582    3    3    5    4
 0.01385743053222641    3    3    5    5
 0.0001624179484080377    3    3    6    1
 0.0005075278823369465    3    3    6    2
 0.004477076691380892    3    3    6    3
 -0.00146758803135883    3    3    6    4
 -0.002704136963198574    3    3    6    5
 0.2464444502291466    3    3    6    6
 -0.001026538565509138    3    3    7    1
 0.1709783314877888    3    3    7    2
 0.0004289817312330001    3    3    7    3
 -0.002760329061546846    3    3    7    4
 0.03218448332346455    3    3    7    5