 &FCI NORB= 16,NELEC= 16,MS2= 0,
  ORBSYM=1,1,1,1,1,1,1,1,1,1,1,1,1,1,1,1,
  ISYM=1,
 &END
  0.0089517108546951   1   1   1   1
  0.0089557375577333   2   1   2   1
  0.0089557375577333   2   2   1   1
  0.0089597666177133   2   2   2   2
  0.0255480478103266   3   1   3   1
  0.0255612722534489   3   2   3   2
  0.0255480478103266   3   3   1   1
  0.0255612722534489   3   3   2   2
  0.0784135135377061   3   3   3   3
 -0.0255557468951738   4   1   3   2
  0.0255502227432809   4   1   4   1
 -0.0255557468951738   4   2   3   1
  0.0255634489500311   4   2   4   2
 -0.0255557468951738   4   3   2   1
  0.0784222139368685   4   3   4   3
  0.0255502227432809   4   4   1   1
  0.0255634489500311   4   4   2   2
  0.0784222139368685   4   4   3   3
  0.0784309159946720   4   4   4   4
  0.0336822156804407   5   1   3   1
 -0.0336914467601761   5   1   4   2
  0.0457066810330399   5   1   5   1
  0.0336986060996282   5   2   3   2
 -0.0336914467601761   5   2   4   1
  0.0457269586211349   5   2   5   2
  0.0336822156804407   5   3   1   1
  0.0336986060996282   5   3   2   2
  0.1000631823788558   5   3   3   3
  0.1000731495716192   5   3   4   4
  0.1295495433665007   5   3   5   3
 -0.0336914467601761   5   4   2   1
  0.1000731495716192   5   4   4   3
  0.1295602419253335   5   4   5   4
  0.0457066810330399   5   5   1   1
  0.0457269586211349   5   5   2   2
  0.1295495433665007   5   5   3   3
  0.1295602419253335   5   5   4   4
  0.1713370831052040   5   5   5   3
  0.2335206401478526   5   5   5   5
  0.0236736172396539   6   1   1   1
  0.0236848818706796   6   1   2   2
  0.0695187328777689   6   1   3   3
  0.0695253707459015   6   1   4   4
  0.0904740472133026   6   1   5   3
  0.1205568351451543   6   1   5   5
  0.0633016922760462   6   1   6   1
  0.0236848818706796   6   2   2   1
 -0.0695405159408529   6   2   4   3
 -0.0905004094978338   6   2   5   4
  0.0633331822931574   6   2   6   2
  0.0695187328777689   6   3   3   1
 -0.0695405159408529   6   3   4   2
  0.0904740472133026   6   3   5   1
  0.1902353109253549   6   3   6   3
 -0.0695405159408529   6   4   3   2
  0.0695253707459015   6   4   4   1
 -0.0905004094978338   6   4   5   2
  0.1902550306528257   6   4   6   4
  0.0904740472133026   6   5   3   1
 -0.0905004094978338   6   5   4   2
  0.1205568351451543   6   5   5   1
  0.2450314285910708   6   5   6   3
  0.3216523668498691   6   5   6   5
  0.0633016922760462   6   6   1   1
  0.0633331822931574   6   6   2   2
  0.1902353109253549   6   6   3   3
  0.1902550306528257   6   6   4   4
  0.2450314285910708   6   6   5   3
  0.3216523668498691   6   6   5   5
  0.1708093808390971   6   6   6   1
  0.4642993338063100   6   6   6   6
  0.0236783084646289   7   1   2   1
 -0.0695184884341110   7   1   4   3
 -0.0904733412396368   7   1   5   4
  0.0633146354503062   7   1   6   2
  0.0632960953772367   7   1   7   1
  0.0236783084646289   7   2   1   1
  0.0236895756816360   7   2   2   2
  0.0695336320021212   7   2   3   3
  0.0695402716947640   7   2   4   4
  0.0904927792813855   7   2   5   3
  0.1205805418954646   7   2   5   5
  0.0633146354503062   7   2   6   1
  0.1708451838252829   7   2   6   6
  0.0633275814978670   7   2   7   2
  0.0695336320021212   7   3   3   2
 -0.0695184884341110   7   3   4   1
  0.0904927792813855   7   3   5   2
 -0.1902349934967967   7   3   6   4
  0.1902149598006492   7   3   7   3
 -0.0695184884341110   7   4   3   1
  0.0695402716947640   7   4   4   2
 -0.0904733412396368   7   4   5   1
 -0.1902349934967966   7   4   6   3
 -0.2450301861556032   7   4   6   5
  0.1902346761837869   7   4   7   4
  0.0904927792813855   7   5   3   2
 -0.0904733412396368   7   5   4   1
  0.1205805418954646   7   5   5   2
 -0.2450301861556032   7   5   6   4
  0.2450072375154873   7   5   7   3
  0.3216245032522930   7   5   7   5
  0.0633146354503062   7   6   2   1
 -0.1902349934967967   7   6   4   3
 -0.2450301861556032   7   6   5   4
  0.1708451838252829   7   6   6   2
  0.1707930235340900   7   6   7   1
  0.4642521355215474   7   6   7   6
  0.0632960953772367   7   7   1   1
  0.0633275814978670   7   7   2   2
  0.1902149598006492   7   7   3   3
  0.1902346761837869   7   7   4   4
  0.2450072375154873   7   7   5   3
  0.3216245032522930   7   7   5   5
  0.1707930235340900   7   7   6   1
  0.4642521355215474   7   7   6   6
  0.1708288223849041   7   7   7   2
  0.4642049442206390   7   7   7   7
 -0.0336889932966530   8   1   3   2
  0.0336818361458892   8   1   4   1
 -0.0457154381583910   8   1   5   2
  0.0904732134522623   8   1   6   4
 -0.0904655871053962   8   1   7   3
 -0.1205476444705875   8   1   7   5
  0.0457039223321144   8   1   8   1
 -0.0336889932966530   8   2   3   1
  0.0336982265449768   8   2   4   2
 -0.0457154381583910   8   2   5   1
 -0.0904926514386594   8   2   6   3
 -0.1205806617374612   8   2   6   5
  0.0904919454527804   8   2   7   4
  0.0457241971062410   8   2   8   2
 -0.0336889932966530   8   3   2   1
  0.1000625774021773   8   3   4   3
  0.1295484574287614   8   3   5   4
 -0.0904926514386594   8   3   6   2
 -0.0904655871053962   8   3   7   1
 -0.2450066288414165   8   3   7   6
  0.1295366759240878   8   3   8   3
  0.0336818361458892   8   4   1   1
  0.0336982265449768   8   4   2   2
  0.1000625774021773   8   4   3   3
  0.1000725447195112   8   4   4   4
  0.1295484574287614   8   4   5   3
  0.1713350672706679   8   4   5   5
  0.0904732134522623   8   4   6   1
  0.2450295771266407   8   4   6   6
  0.0904919454527804   8   4   7   2
  0.2450053859077136   8   4   7   7
  0.1295473715486943   8   4   8   4
 -0.0457154381583910   8   5   2   1
  0.1295484574287614   8   5   4   3
  0.1713350672706679   8   5   5   4
 -0.1205806617374612   8   5   6   2
 -0.1205476444705875   8   5   7   1
 -0.3216243344305918   8   5   7   6
  0.1713231301435888   8   5   8   3
  0.2335073686569155   8   5   8   5
 -0.0904926514386594   8   6   3   2
  0.0904732134522623   8   6   4   1
 -0.1205806617374612   8   6   5   2
  0.2450295771266407   8   6   6   4
 -0.2450066288414165   8   6   7   3
 -0.3216243344305918   8   6   7   5
  0.1205477646162291   8   6   8   1
  0.3216241656734768   8   6   8   6
 -0.0904655871053962   8   7   3   1
  0.0904919454527804   8   7   4   2
 -0.1205476444705875   8   7   5   1
 -0.2450066288414165   8   7   6   3
 -0.3216243344305918   8   7   6   5
  0.2450053859077136   8   7   7   4
  0.1205714685492397   8   7   8   2
  0.3215963077759316   8   7   8   7
  0.0457039223321145   8   8   1   1
  0.0457241971062410   8   8   2   2
  0.1295366759240878   8   8   3   3
  0.1295473715486943   8   8   4   4
  0.1713231301435888   8   8   5   3
  0.2335073686569156   8   8   5   5
  0.1205477646162291   8   8   6   1
  0.3216241656734769   8   8   6   6
  0.1205714685492397   8   8   7   2
  0.3215963077759316   8   8   7   7
  0.1713211139917708   8   8   8   4
  0.2334941025511601   8   8   8   8
 -0.0154661211410174   9   1   3   2
  0.0154620412371969   9   1   4   1
 -0.0127243558660633   9   1   5   2
  0.0490197734037310   9   1   6   4
 -0.0490070901770607   9   1   7   3
 -0.0472108676117286   9   1   7   5
  0.0127117464459089   9   1   8   1
  0.0472090905241441   9   1   8   6
  0.0545376452439255   9   1   9   1
 -0.0154661211410174   9   2   3   1
  0.0154762009410090   9   2   4   2
 -0.0127243558660633   9   2   5   1
 -0.0490320444052314   9   2   6   3
 -0.0472429484353649   9   2   6   5
  0.0490341582404479   9   2   7   4
  0.0127295104522137   9   2   8   2
  0.0472262554540594   9   2   8   7
  0.0545515275611270   9   2   9   2
 -0.0154661211410174   9   3   2   1
  0.0670016073994787   9   3   4   3
  0.0745422854804610   9   3   5   4
 -0.0490320444052314   9   3   6   2
 -0.0490070901770607   9   3   7   1
 -0.1491211575102094   9   3   7   6
  0.0745231933602760   9   3   8   3
  0.0751905120568218   9   3   8   5
  0.1218372274283366   9   3   9   3
  0.0154620412371969   9   4   1   1
  0.0154762009410090   9   4   2   2
  0.0670016073994787   9   4   3   3
  0.0670157330408282   9   4   4   4
  0.0745422854804610   9   4   5   3
  0.0752188338224468   9   4   5   5
  0.0490197734037311   9   4   6   1
  0.1491536960056281   9   4   6   6
  0.0490341582404479   9   4   7   2
  0.1491258222448026   9   4   7   7
  0.0745436187609314   9   4   8   4
  0.0751932984544771   9   4   8   8
  0.1218351501089218   9   4   9   4
 -0.0127243558660633   9   5   2   1
  0.0745422854804610   9   5   4   3
  0.0752188338224468   9   5   5   4
 -0.0472429484353649   9   5   6   2
 -0.0472108676117285   9   5   7   1
 -0.1564646926217199   9   5   7   6
  0.0751905120568218   9   5   8   3
  0.0586701236661316   9   5   8   5
  0.1810163753681633   9   5   9   3
  0.2839771000323165   9   5   9   5
 -0.0490320444052314   9   6   3   2
  0.0490197734037310   9   6   4   1
 -0.0472429484353649   9   6   5   2
  0.1491536960056281   9   6   6   4
 -0.1491211575102094   9   6   7   3
 -0.1564646926217199   9   6   7   5
  0.0472090905241441   9   6   8   1
  0.1564605894534285   9   6   8   6
  0.1322130600443207   9   6   9   1
  0.3268050335917560   9   6   9   6
 -0.0490070901770607   9   7   3   1
  0.0490341582404479   9   7   4   2
 -0.0472108676117286   9   7   5   1
 -0.1491211575102094   9   7   6   3
 -0.1564646926217199   9   7   6   5
  0.1491258222448026   9   7   7   4
  0.0472262554540594   9   7   8   2
  0.1564222004801428   9   7   8   7
  0.1322323548655454   9   7   9   2
  0.3267978485895957   9   7   9   7
  0.0127117464459089   9   8   1   1
  0.0127295104522137   9   8   2   2
  0.0745231933602760   9   8   3   3
  0.0745436187609314   9   8   4   4
  0.0751905120568218   9   8   5   3
  0.0586701236661316   9   8   5   5
  0.0472090905241441   9   8   6   1
  0.1564605894534285   9   8   6   6
  0.0472262554540594   9   8   7   2
  0.1564222004801428   9   8   7   7
  0.0751932984544771   9   8   8   4
  0.0586314781016681   9   8   8   8
  0.1810111230685912   9   8   9   4
  0.2839909967123183   9   8   9   8
  0.0545376452439255   9   9   1   1
  0.0545515275611270   9   9   2   2
  0.1218372274283366   9   9   3   3
  0.1218351501089218   9   9   4   4
  0.1810163753681633   9   9   5   3
  0.2839771000323166   9   9   5   5
  0.1322130600443207   9   9   6   1
  0.3268050335917559   9   9   6   6
  0.1322323548655454   9   9   7   2
  0.3267978485895957   9   9   7   7
  0.1810111230685913   9   9   8   4
  0.2839909967123183   9   9   8   8
 -0.0464220977036831   9   9   9   4
 -0.1576777209914890   9   9   9   8
  0.5401439802430512   9   9   9   9
 -0.0154580097102813  10   1   3   1
  0.0154680868230315  10   1   4   2
 -0.0127140053452441  10   1   5   1
 -0.0490096611305949  10   1   6   3
 -0.0472145604767786  10   1   6   5
  0.0490117749420778  10   1   7   4
  0.0127191577324030  10   1   8   2
  0.0471978707000073  10   1   8   7
  0.0545445923700752  10   1   9   2
  0.1322121997053005  10   1   9   7
  0.0545376598451003  10   1  10   1
 -0.0154721680875898  10   2   3   2
  0.0154680868230315  10   2   4   1
 -0.0127317699210546  10   2   5   2
  0.0490367297543208  10   2   6   4
 -0.0490240442791642  10   2   7   3
 -0.0472317262010833  10   2   7   5
  0.0127191577324030  10   2   8   1
  0.0472299489595422  10   2   8   6
  0.0545445923700752  10   2   9   1
  0.1322321230737653  10   2   9   6
  0.0545515411660707  10   2  10   2
 -0.0154580097102813  10   3   1   1
 -0.0154721680875898  10   3   2   2
 -0.0669916475634103  10   3   3   3
 -0.0670057729261230  10   3   4   4
 -0.0745282223258422  10   3   5   3
 -0.0751979971261373  10   3   5   5
 -0.0490096611305949  10   3   6   1
 -0.1491278784149522  10   3   6   6
 -0.0490240442791642  10   3   7   2
 -0.1491000059441314  10   3   7   7
 -0.0745295559116742  10   3   8   4
 -0.0751724615966439  10   3   8   8
 -0.1218346166113603  10   3   9   4
 -0.1810161492273777  10   3   9   8
  0.0464561647373932  10   3   9   9
  0.1218340853640829  10   3  10   3
  0.0154680868230315  10   4   2   1
 -0.0670057729261230  10   4   4   3
 -0.0745486476325597  10   4   5   4
  0.0490367297543208  10   4   6   2
  0.0490117749420778  10   4   7   1
  0.1491325430354435  10   4   7   6
 -0.0745295559116742  10   4   8   3
 -0.0752007833047323  10   4   8   5
 -0.1218346166113602  10   4   9   3
 -0.1810091278556678  10   4   9   5
  0.1218320066049545  10   4  10   4
 -0.0127140053452441  10   5   1   1
 -0.0127317699210546  10   5   2   2
 -0.0745282223258422  10   5   3   3
 -0.0745486476325597  10   5   4   4
 -0.0751979971261373  10   5   5   3
 -0.0586818885777708  10   5   5   5
 -0.0472145604767786  10   5   6   1
 -0.1564740950949292  10   5   6   6
 -0.0472317262010833  10   5   7   2
 -0.1564357058379138  10   5   7   7
 -0.0752007833047323  10   5   8   4
 -0.0586432436047143  10   5   8   8
 -0.1810091278556678  10   5   9   4
 -0.2839843447051439  10   5   9   8
  0.1576552416195954  10   5   9   9
  0.1810141525985317  10   5  10   3
  0.2839776936335358  10   5  10   5
 -0.0490096611305949  10   6   3   1
  0.0490367297543208  10   6   4   2
 -0.0472145604767786  10   6   5   1
 -0.1491278784149522  10   6   6   3
 -0.1564740950949292  10   6   6   5
  0.1491325430354435  10   6   7   4
  0.0472299489595422  10   6   8   2
  0.1564316025598919  10   6   8   7
  0.1322321230737652  10   6   9   2
  0.3267987216494244  10   6   9   7
  0.1322119671773719  10   6  10   1
  0.3267995950387342  10   6  10   6
 -0.0490240442791642  10   7   3   2
  0.0490117749420778  10   7   4   1
 -0.0472317262010833  10   7   5   2
  0.1491325430354435  10   7   6   4
 -0.1491000059441314  10   7   7   3
 -0.1564357058379138  10   7   7   5
  0.0471978707000073  10   7   8   1
  0.1564316025598919  10   7   8   6
  0.1322121997053005  10   7   9   1
  0.3267987216494244  10   7   9   6
  0.1322312611318777  10   7  10   2
  0.3267924125616075  10   7  10   7
  0.0127191577324030  10   8   2   1
 -0.0745295559116742  10   8   4   3
 -0.0752007833047324  10   8   5   4
  0.0472299489595422  10   8   6   2
  0.0471978707000074  10   8   7   1
  0.1564316025598919  10   8   7   6
 -0.0751724615966439  10   8   8   3
 -0.0586432436047143  10   8   8   5
 -0.1810161492273777  10   8   9   3
 -0.2839843447051439  10   8   9   5
  0.1810089000215123  10   8  10   4
  0.2839915932000783  10   8  10   8
  0.0545445923700752  10   9   2   1
 -0.1218346166113603  10   9   4   3
 -0.1810091278556678  10   9   5   4
  0.1322321230737652  10   9   6   2
  0.1322121997053005  10   9   7   1
  0.3267987216494244  10   9   7   6
 -0.1810161492273777  10   9   8   3
 -0.2839843447051439  10   9   8   5
  0.0464561647373931  10   9   9   3
  0.1576552416195954  10   9   9   5
 -0.0464353134265524  10   9  10   4
 -0.1576998391791514  10   9  10   8
  0.5401636426926893  10   9  10   9
  0.0545376598451003  10  10   1   1
  0.0545515411660707  10  10   2   2
  0.1218340853640829  10  10   3   3
  0.1218320066049545  10  10   4   4
  0.1810141525985317  10  10   5   3
  0.2839776936335358  10  10   5   5
  0.1322119671773720  10  10   6   1
  0.3267995950387342  10  10   6   6
  0.1322312611318777  10  10   7   2
  0.3267924125616075  10  10   7   7
  0.1810089000215123  10  10   8   4
  0.2839915932000783  10  10   8   8
 -0.0464353134265524  10  10   9   4
 -0.1576998391791514  10  10   9   8
  0.5401636426926893  10  10   9   9
  0.0464693813618417  10  10  10   3
  0.1576773589827724  10  10  10   5
  0.5401833069853689  10  10  10  10
  0.0057312892062963  11   1   2   1
 -0.0304132591026765  11   1   4   3
 -0.0316180323962678  11   1   5   4
  0.0201550522636827  11   1   6   2
  0.0201424832553085  11   1   7   1
  0.0649742444312026  11   1   7   6
 -0.0316073297683509  11   1   8   3
 -0.0269457234454834  11   1   8   5
 -0.0683797548659467  11   1   9   3
 -0.1059177548549853  11   1   9   5
  0.0683773208290063  11   1  10   4
  0.1059198080141005  11   1  10   8
 -0.0515628175886091  11   1  10   9
  0.0396209813592880  11   1  11   1
  0.0057312892062963  11   2   1   1
  0.0057382969854972  11   2   2   2
  0.0304206497661783  11   2   3   3
  0.0304284176288084  11   2   4   4
  0.0316262838924883  11   2   5   3
  0.0269706653947565  11   2   5   5
  0.0201550522636826  11   2   6   1
  0.0650086236240938  11   2   6   6
  0.0201619181890067  11   2   7   2
  0.0649938459841820  11   2   7   7
  0.0316272637412571  11   2   8   4
  0.0269561284468064  11   2   8   8
  0.0683892162740833  11   2   9   4
  0.1059337324172506  11   2   9   8
 -0.0515452715444603  11   2   9   9
 -0.0683905886412405  11   2  10   3
 -0.1059315529118912  11   2  10   5
 -0.0515534034277418  11   2  10  10
  0.0396320009922133  11   2  11   2
  0.0304206497661783  11   3   3   2
 -0.0304132591026765  11   3   4   1
  0.0316262838924883  11   3   5   2
 -0.0904409293544733  11   3   6   4
  0.0904233149146770  11   3   7   3
  0.0993530256340182  11   3   7   5
 -0.0316073297683509  11   3   8   1
 -0.0993509934051557  11   3   8   6
 -0.0683797548659467  11   3   9   1
 -0.1717795068933949  11   3   9   6
 -0.0683905886412405  11   3  10   2
 -0.1717743884244178  11   3  10   7
  0.0914795849481749  11   3  11   3
 -0.0304132591026765  11   4   3   1
  0.0304284176288084  11   4   4   2
 -0.0316180323962678  11   4   5   1
 -0.0904409293544733  11   4   6   3
 -0.0993779045161404  11   4   6   5
  0.0904431398816057  11   4   7   4
  0.0316272637412571  11   4   8   2
  0.0993550355279175  11   4   8   7
  0.0683892162740833  11   4   9   2
  0.1717742007158091  11   4   9   7
  0.0683773208290063  11   4  10   1
  0.1717752835753433  11   4  10   6
  0.0914794204552453  11   4  11   4
  0.0316262838924883  11   5   3   2
 -0.0316180323962678  11   5   4   1
  0.0269706653947565  11   5   5   2
 -0.0993779045161404  11   5   6   4
  0.0993530256340182  11   5   7   3
  0.0974760615431947  11   5   7   5
 -0.0269457234454834  11   5   8   1
 -0.0974726384872644  11   5   8   6
 -0.1059177548549853  11   5   9   1
 -0.2576375466807667  11   5   9   6
 -0.1059315529118912  11   5  10   2
 -0.2576352936159634  11   5  10   7
  0.1336284391892071  11   5  11   3
  0.2058225588262702  11   5  11   5
  0.0201550522636826  11   6   2   1
 -0.0904409293544732  11   6   4   3
 -0.0993779045161404  11   6   5   4
  0.0650086236240938  11   6   6   2
  0.0649742444312026  11   6   7   1
  0.1997689267570718  11   6   7   6
 -0.0993509934051557  11   6   8   3
 -0.0974726384872644  11   6   8   5
 -0.1717795068933949  11   6   9   3
 -0.2576375466807667  11   6   9   5
  0.1717752835753433  11   6  10   4
  0.2576384482450587  11   6  10   8
 -0.0797681463501089  11   6  10   9
  0.0971054672715134  11   6  11   1
  0.2425833370193215  11   6  11   6
  0.0201424832553085  11   7   1   1
  0.0201619181890067  11   7   2   2
  0.0904233149146770  11   7   3   3
  0.0904431398816056  11   7   4   4
  0.0993530256340182  11   7   5   3
  0.0974760615431947  11   7   5   5
  0.0649742444312026  11   7   6   1
  0.1997689267570718  11   7   6   6
  0.0649938459841820  11   7   7   2
  0.1997301161383896  11   7   7   7
  0.0993550355279175  11   7   8   4
  0.0974399451898239  11   7   8   8
  0.1717742007158091  11   7   9   4
  0.2576387023067081  11   7   9   8
 -0.0797787053334598  11   7   9   9
 -0.1717743884244178  11   7  10   3
 -0.2576352936159634  11   7  10   5
 -0.0797977392052270  11   7  10  10
  0.0971202993734264  11   7  11   2
  0.2425757561706432  11   7  11   7
 -0.0316073297683509  11   8   3   1
  0.0316272637412571  11   8   4   2
 -0.0269457234454834  11   8   5   1
 -0.0993509934051557  11   8   6   3
 -0.0974726384872644  11   8   6   5
  0.0993550355279175  11   8   7   4
  0.0269561284468064  11   8   8   2
  0.0974399451898239  11   8   8   7
  0.1059337324172506  11   8   9   2
  0.2576387023067081  11   8   9   7
  0.1059198080141005  11   8  10   1
  0.2576384482450587  11   8  10   6
  0.1336248813681296  11   8  11   4
  0.2058299610851747  11   8  11   8
 -0.0683797548659467  11   9   3   1
  0.0683892162740833  11   9   4   2
 -0.1059177548549853  11   9   5   1
 -0.1717795068933949  11   9   6   3
 -0.2576375466807667  11   9   6   5
  0.1717742007158091  11   9   7   4
  0.1059337324172506  11   9   8   2
  0.2576387023067082  11   9   8   7
 -0.0515452715444603  11   9   9   2
 -0.0797787053334598  11   9   9   7
 -0.0515628175886091  11   9  10   1
 -0.0797681463501089  11   9  10   6
 -0.0213888199969365  11   9  11   4
 -0.0939247102123145  11   9  11   8
  0.3741722702520779  11   9  11   9
 -0.0683905886412405  11  10   3   2
  0.0683773208290063  11  10   4   1
 -0.1059315529118912  11  10   5   2
  0.1717752835753433  11  10   6   4
 -0.1717743884244178  11  10   7   3
 -0.2576352936159634  11  10   7   5
  0.1059198080141005  11  10   8   1
  0.2576384482450587  11  10   8   6
 -0.0515628175886091  11  10   9   1
 -0.0797681463501089  11  10   9   6
 -0.0515534034277418  11  10  10   2
 -0.0797977392052270  11  10  10   7
  0.0214127354550827  11  10  11   3
  0.0939091439261888  11  10  11   5
  0.3741848376982298  11  10  11  10
  0.0396209813592880  11  11   1   1
  0.0396320009922133  11  11   2   2
  0.0914795849481749  11  11   3   3
  0.0914794204552453  11  11   4   4
  0.1336284391892071  11  11   5   3
  0.2058225588262702  11  11   5   5
  0.0971054672715134  11  11   6   1
  0.2425833370193215  11  11   6   6
  0.0971202993734264  11  11   7   2
  0.2425757561706432  11  11   7   7
  0.1336248813681296  11  11   8   4
  0.2058299610851747  11  11   8   8
 -0.0213888199969365  11  11   9   4
 -0.0939247102123145  11  11   9   8
  0.3741722702520779  11  11   9   9
  0.0214127354550827  11  11  10   3
  0.0939091439261888  11  11  10   5
  0.3741848376982298  11  11  10  10
 -0.0298620415977643  11  11  11   2
 -0.0401942579101208  11  11  11   7
  0.2601833005020419  11  11  11  11
 -0.0057269662794021  12   1   1   1
 -0.0057339717134457  12   1   2   2
 -0.0304070403630753  12   1   3   3
 -0.0304148065988428  12   1   4   4
 -0.0316091083058564  12   1   5   3
 -0.0269488002434472  12   1   5   5
 -0.0201431678858426  12   1   6   1
 -0.0649758403729807  12   1   6   6
 -0.0201500311964051  12   1   7   2
 -0.0649610664482465  12   1   7   7
 -0.0316100882273217  12   1   8   4
 -0.0269342657826281  12   1   8   8
 -0.0683764599267254  12   1   9   4
 -0.1059187496782074  12   1   9   8
  0.0515637894657969  12   1   9   9
  0.0683778338832377  12   1  10   3
  0.1059165694098812  12   1  10   5
  0.0515719206198831  12   1  10  10
 -0.0396259810099885  12   1  11   2
 -0.0971029554875969  12   1  11   7
  0.0298761806031348  12   1  11  11
  0.0396199634094902  12   1  12   1
 -0.0057339717134457  12   2   2   1
  0.0304221975279106  12   2   4   3
  0.0316290422972987  12   2   5   4
 -0.0201626029372877  12   2   6   2
 -0.0201500311964051  12   2   7   1
 -0.0649954421188908  12   2   7   6
  0.0316183381005884  12   2   8   3
  0.0269592056161837  12   2   8   5
  0.0683897275454720  12   2   9   3
  0.1059304941843763  12   2   9   5
 -0.0683872937601881  12   2  10   4
 -0.1059325462777327  12   2  10   8
  0.0515543755414517  12   2  10   9
 -0.0396259810099885  12   2  11   1
 -0.0971191934264089  12   2  11   6
  0.0396309817639527  12   2  12   2
 -0.0304070403630753  12   3   3   1
  0.0304221975279106  12   3   4   2
 -0.0316091083058564  12   3   5   1
 -0.0904246649295120  12   3   6   3
 -0.0993551696140701  12   3   6   5
  0.0904268757301670  12   3   7   4
  0.0316183381005884  12   3   8   2
  0.0993323015902158  12   3   8   7
  0.0683897275454720  12   3   9   2
  0.1717719768023795  12   3   9   7
  0.0683778338832377  12   3  10   1
  0.1717730588669044  12   3  10   6
  0.0914767465530235  12   3  11   4
  0.1336254010209781  12   3  11   8
 -0.0214142589511029  12   3  11   9
  0.0914740745691323  12   3  12   3
  0.0304221975279106  12   4   3   2
 -0.0304148065988428  12   4   4   1
  0.0316290422972987  12   4   5   2
 -0.0904444897890138  12   4   6   4
  0.0904268757301670  12   4   7   3
  0.0993592115038421  12   4   7   5
 -0.0316100882273217  12   4   8   1
 -0.0993571794264319  12   4   8   6
 -0.0683764599267254  12   4   9   1
 -0.1717728716363982  12   4   9   6
 -0.0683872937601881  12   4  10   2
 -0.1717677523102264  12   4  10   7
  0.0914767465530235  12   4  11   3
  0.1336222263937474  12   4  11   5
  0.0213998894762322  12   4  11  10
  0.0914739086478968  12   4  12   4
 -0.0316091083058564  12   5   3   1
  0.0316290422972987  12   5   4   2
 -0.0269488002434472  12   5   5   1
 -0.0993551696140700  12   5   6   3
 -0.0974796556653368  12   5   6   5
  0.0993592115038421  12   5   7   4
  0.0269592056161837  12   5   8   2
  0.0974469628838596  12   5   8   7
  0.1059304941843763  12   5   9   2
  0.2576323204104681  12   5   9   7
  0.1059165694098812  12   5  10   1
  0.2576320666985435  12   5  10   6
  0.1336222263937474  12   5  11   4
  0.2058238732667606  12   5  11   8
 -0.0939110753604130  12   5  11   9
  0.1336227452053821  12   5  12   3
  0.2058177859841759  12   5  12   5
 -0.0201431678858426  12   6   1   1
 -0.0201626029372877  12   6   2   2
 -0.0904246649295120  12   6   3   3
 -0.0904444897890138  12   6   4   4
 -0.0993551696140700  12   6   5   3
 -0.0974796556653368  12   6   5   5
 -0.0649758403729807  12   6   6   1
 -0.1997727168933237  12   6   6   6
 -0.0649954421188908  12   6   7   2
 -0.1997339063272838  12   6   7   7
 -0.0993571794264319  12   6   8   4
 -0.0974435396493696  12   6   8   8
 -0.1717728716363982  12   6   9   4
 -0.2576354750608323  12   6   9   8
  0.0797708214525555  12   6   9   9
  0.1717730588669044  12   6  10   3
  0.2576320666985436  12   6  10   5
  0.0797898549736112  12   6  10  10
 -0.0971191934264089  12   6  11   2
 -0.2425736799833430  12   6  11   7
  0.0401888560700894  12   6  11  11
  0.0971018493496158  12   6  12   1
  0.2425716039147169  12   6  12   6
 -0.0201500311964051  12   7   2   1
  0.0904268757301670  12   7   4   3
  0.0993592115038421  12   7   5   4
 -0.0649954421188908  12   7   6   2
 -0.0649610664482465  12   7   7   1
 -0.1997339063272838  12   7   7   6
  0.0993323015902158  12   7   8   3
  0.0974469628838596  12   7   8   5
  0.1717719768023795  12   7   9   3
  0.2576323204104682  12   7   9   5
 -0.1717677523102264  12   7  10   4
 -0.2576332249940773  12   7  10   8
  0.0798004140778891  12   7  10   9
 -0.0971029554875969  12   7  11   1
 -0.2425736799833430  12   7  11   6
  0.0971166802025888  12   7  12   2
  0.2425640257761311  12   7  12   7
  0.0316183381005884  12   8   3   2
 -0.0316100882273217  12   8   4   1
  0.0269592056161837  12   8   5   2
 -0.0993571794264319  12   8   6   4
  0.0993323015902158  12   8   7   3
  0.0974469628838596  12   8   7   5
 -0.0269342657826281  12   8   8   1
 -0.0974435396493696  12   8   8   6
 -0.1059187496782074  12   8   9   1
 -0.2576354750608322  12   8   9   6
 -0.1059325462777326  12   8  10   2
 -0.2576332249940773  12   8  10   7
  0.1336254010209781  12   8  11   3
  0.2058238732667606  12   8  11   5
  0.0939423401990337  12   8  11  10
  0.1336191872009425  12   8  12   4
  0.2058251909224489  12   8  12   8
  0.0683897275454720  12   9   3   2
 -0.0683764599267254  12   9   4   1
  0.1059304941843763  12   9   5   2
 -0.1717728716363982  12   9   6   4
  0.1717719768023795  12   9   7   3
  0.2576323204104681  12   9   7   5
 -0.1059187496782074  12   9   8   1
 -0.2576354750608323  12   9   8   6
  0.0515637894657969  12   9   9   1
  0.0797708214525555  12   9   9   6
  0.0515543755414517  12   9  10   2
  0.0798004140778891  12   9  10   7
 -0.0214142589511029  12   9  11   3
 -0.0939110753604130  12   9  11   5
 -0.3741834612983529  12   9  11  10
 -0.0214014129821659  12   9  12   4
 -0.0939442714234889  12   9  12   8
  0.3741820849319836  12   9  12   9
  0.0683778338832377  12  10   3   1
 -0.0683872937601881  12  10   4   2
  0.1059165694098812  12  10   5   1
  0.1717730588669044  12  10   6   3
  0.2576320666985436  12  10   6   5
 -0.1717677523102264  12  10   7   4
 -0.1059325462777326  12  10   8   2
 -0.2576332249940773  12  10   8   7
  0.0515543755414517  12  10   9   2
  0.0798004140778891  12  10   9   7
  0.0515719206198831  12  10  10   1
  0.0797898549736112  12  10  10   6
  0.0213998894762322  12  10  11   4
  0.0939423401990337  12  10  11   8
 -0.3741834612983530  12  10  11   9
  0.0214253287142217  12  10  12   3
  0.0939287047225961  12  10  12   5
  0.3741946538845671  12  10  12  10
 -0.0396259810099885  12  11   2   1
  0.0914767465530235  12  11   4   3
  0.1336222263937474  12  11   5   4
 -0.0971191934264089  12  11   6   2
 -0.0971029554875969  12  11   7   1
 -0.2425736799833430  12  11   7   6
  0.1336254010209781  12  11   8   3
  0.2058238732667606  12  11   8   5
 -0.0214142589511029  12  11   9   3
 -0.0939110753604130  12  11   9   5
  0.0213998894762322  12  11  10   4
  0.0939423401990337  12  11  10   8
 -0.3741834612983530  12  11  10   9
  0.0298761806031348  12  11  11   1
  0.0401888560700894  12  11  11   6
 -0.0298693550867945  12  11  12   2
 -0.0402121502171977  12  11  12   7
  0.2601890256982813  12  11  12  11
  0.0396199634094902  12  12   1   1
  0.0396309817639527  12  12   2   2
  0.0914740745691323  12  12   3   3
  0.0914739086478968  12  12   4   4
  0.1336227452053821  12  12   5   3
  0.2058177859841759  12  12   5   5
  0.0971018493496158  12  12   6   1
  0.2425716039147169  12  12   6   6
  0.0971166802025888  12  12   7   2
  0.2425640257761311  12  12   7   7
  0.1336191872009425  12  12   8   4
  0.2058251909224489  12  12   8   8
 -0.0214014129821659  12  12   9   4
 -0.0939442714234889  12  12   9   8
  0.3741820849319836  12  12   9   9
  0.0214253287142217  12  12  10   3
  0.0939287047225961  12  12  10   5
  0.3741946538845671  12  12  10  10
 -0.0298693550867945  12  12  11   2