 &FCI NORB= 32,NELEC= 32,MS2= 0,
  ORBSYM=1,1,1,1,1,1,1,1,1,1,1,1,1,1,1,1,1,1,1,1,1,1,1,1,1,1,1,1,1,1,1,1,
  ISYM=1,
 &END
  0.0079719860618952   1   1   1   1
  0.0096561892370415   2   1   2   1
  0.0096561892370415   2   2   1   1
  0.0176482469020970   2   2   2   2
 -0.0083730939302292   3   1   1   1
 -0.0123320409066111   3   1   2   2
  0.0096566914338323   3   1   3   1
 -0.0123320409066111   3   2   2   1
  0.0176479126714088   3   2   3   2
  0.0096566914338323   3   3   1   1
  0.0176479126714088   3   3   2   2
 -0.0123321884749447   3   3   3   1
  0.0176475786409975   3   3   3   3
  0.0104185838626718   4   1   4   1
 -0.0136879920880643   4   2   4   1
  0.0285210921588606   4   2   4   2
 -0.0167777070426204   4   3   4   1
  0.0257127341662506   4   3   4   2
  0.0285192397413179   4   3   4   3
  0.0104185838626718   4   4   1   1
 -0.0136879920880643   4   4   2   1
  0.0285210921588606   4   4   2   2
 -0.0167777070426204   4   4   3   1
  0.0257127341662506   4   4   3   2
  0.0285192397413179   4   4   3   3
  0.1121004922258123   4   4   4   4
 -0.0069007008823081   5   1   4   1
  0.0163775658114848   5   1   4   2
  0.0134719201105299   5   1   4   3
  0.0104100748760888   5   1   5   1
  0.0163775658114848   5   2   4   1
 -0.0253093484698863   5   2   4   2
 -0.0278394645474187   5   2   4   3
 -0.0126243002810653   5   2   5   1
  0.0285000067397733   5   2   5   2
  0.0134719201105299   5   3   4   1
 -0.0278394645474187   5   3   4   2
 -0.0253071065187309   5   3   4   3
 -0.0167649124060862   5   3   5   1
  0.0237146310335326   5   3   5   2
  0.0284981554295424   5   3   5   3
 -0.0069007008823081   5   4   1   1
  0.0163775658114848   5   4   2   1
 -0.0253093484698863   5   4   2   2
  0.0134719201105299   5   4   3   1
 -0.0278394645474187   5   4   3   2
 -0.0253071065187309   5   4   3   3
 -0.1081673306999055   5   4   4   4
  0.1077090627495255   5   4   5   4
  0.0104100748760888   5   5   1   1
 -0.0126243002810653   5   5   2   1
  0.0285000067397733   5   5   2   2
 -0.0167649124060862   5   5   3   1
  0.0237146310335326   5   5   3   2
  0.0284981554295424   5   5   3   3
  0.1077090627495255   5   5   4   4
 -0.1039441982559676   5   5   5   4
  0.1036601518837036   5   5   5   5
  0.0012526407736073   6   1   4   1
 -0.0036150931344606   6   1   4   2
 -0.0024454728174779   6   1   4   3
  0.0052901983284997   6   1   5   2
  0.0104100748760885   6   1   6   1
 -0.0036150931344606   6   2   4   1
  0.0045942466406705   6   2   4   2
  0.0061451291547768   6   2   4   3
  0.0052901983284997   6   2   5   1
 -0.0099375885127468   6   2   5   3
  0.0126243002810647   6   2   6   1
  0.0285000067397714   6   2   6   2
 -0.0024454728174779   6   3   4   1
  0.0061451291547768   6   3   4   2
  0.0045938396733961   6   3   4   3
 -0.0099375885127468   6   3   5   2
 -0.0167649124060855   6   3   6   1
 -0.0237146310335309   6   3   6   2
  0.0284981554295409   6   3   6   3
  0.0012526407736073   6   4   1   1
 -0.0036150931344606   6   4   2   1
  0.0045942466406705   6   4   2   2
 -0.0024454728174779   6   4   3   1
  0.0061451291547768   6   4   3   2
  0.0045938396733961   6   4   3   3
  0.0217468190304693   6   4   4   4
 -0.0216433733899498   6   4   5   4
  0.0208160439770918   6   4   5   5
  0.0044162797242139   6   4   6   4
  0.0052901983284997   6   5   2   1
 -0.0099375885127468   6   5   3   2
 -0.0216433733899498   6   5   4   4
  0.0208160439770918   6   5   5   4
 -0.0199521621414776   6   5   5   5
 -0.0045949867540554   6   5   6   4
  0.0083853534883707   6   5   6   5
  0.0104100748760885   6   6   1   1
  0.0126243002810647   6   6   2   1
  0.0285000067397714   6   6   2   2
 -0.0167649124060855   6   6   3   1
 -0.0237146310335309   6   6   3   2
  0.0284981554295409   6   6   3   3
  0.0044162797242139   6   6   4   4
 -0.0045949867540554   6   6   5   4
  0.0083853534883707   6   6   5   5
 -0.0011136092539407   6   6   6   4
  0.0199521621414747   6   6   6   5
  0.1036601518836903   6   6   6   6
 -0.0005160395793477   7   1   4   2
  0.0012526407736075   7   1   5   1
  0.0036150931344605   7   1   5   2
 -0.0024454728174781   7   1   5   3
  0.0069007008823086   7   1   6   1
  0.0163775658114852   7   1   6   2
 -0.0134719201105304   7   1   6   3
  0.0104185838626730   7   1   7   1
 -0.0005160395793477   7   2   4   1
  0.0009693743565647   7   2   4   3
  0.0036150931344605   7   2   5   1
  0.0045942466406707   7   2   5   2
 -0.0061451291547766   7   2   5   3
  0.0163775658114852   7   2   6   1
  0.0253093484698862   7   2   6   2
 -0.0278394645474189   7   2   6   3
  0.0136879920880657   7   2   7   1
  0.0285210921588627   7   2   7   2
  0.0009693743565647   7   3   4   2
 -0.0024454728174781   7   3   5   1
 -0.0061451291547766   7   3   5   2
  0.0045938396733963   7   3   5   3
 -0.0134719201105304   7   3   6   1
 -0.0278394645474189   7   3   6   2
  0.0253071065187312   7   3   6   3
 -0.0167777070426221   7   3   7   1
 -0.0257127341662526   7   3   7   2
  0.0285192397413203   7   3   7   3
 -0.0005160395793477   7   4   2   1
  0.0009693743565647   7   4   3   2
  0.0021101794542594   7   4   4   4
 -0.0020305569008195   7   4   5   4
  0.0019566707973079   7   4   5   5
  0.0004480284202308   7   4   6   4
 -0.0007930658771082   7   4   6   5
 -0.0019566707973087   7   4   6   6
  0.0001047449694646   7   4   7   4
  0.0012526407736075   7   5   1   1
  0.0036150931344605   7   5   2   1
  0.0045942466406707   7   5   2   2
 -0.0024454728174781   7   5   3   1
 -0.0061451291547766   7   5   3   2
  0.0045938396733963   7   5   3   3
 -0.0020305569008195   7   5   4   4
  0.0019566707973079   7   5   5   4
 -0.0011136092539402   7   5   5   5
 -0.0007930658771082   7   5   6   4
  0.0045949867540550   7   5   6   5
  0.0208160439770905   7   5   6   6
 -0.0004480284202310   7   5   7   4
  0.0044162797242139   7   5   7   5
  0.0069007008823086   7   6   1   1
  0.0163775658114852   7   6   2   1
  0.0253093484698862   7   6   2   2
 -0.0134719201105304   7   6   3   1
 -0.0278394645474189   7   6   3   2
  0.0253071065187312   7   6   3   3
  0.0004480284202308   7   6   4   4
 -0.0007930658771082   7   6   5   4
  0.0045949867540550   7   6   5   5
 -0.0019566707973087   7   6   6   4
  0.0208160439770905   7   6   6   5
  0.1039441982559614   7   6   6   6
 -0.0020305569008204   7   6   7   4
  0.0216433733899499   7   6   7   5
  0.1077090627495268   7   6   7   6
  0.0104185838626730   7   7   1   1
  0.0136879920880657   7   7   2   1
  0.0285210921588627   7   7   2   2
 -0.0167777070426221   7   7   3   1
 -0.0257127341662526   7   7   3   2
  0.0285192397413203   7   7   3   3
  0.0001047449694646   7   7   4   4
 -0.0004480284202310   7   7   5   4
  0.0044162797242139   7   7   5   5
 -0.0020305569008204   7   7   6   4
  0.0216433733899499   7   7   6   5
  0.1077090627495268   7   7   6   6
 -0.0021101794542606   7   7   7   4
  0.0217468190304709   7   7   7   5
  0.1081673306999144   7   7   7   6
  0.1121004922258294   7   7   7   7
 -0.0074599649929604   8   1   4   1
  0.0096560210910178   8   1   4   2
  0.0116057575409928   8   1   4   3
  0.0051981814206353   8   1   5   1
 -0.0113598108908974   8   1   5   2
 -0.0094651219427476   8   1   5   3
 -0.0010251047919369   8   1   6   1
  0.0023277484283973   8   1   6   2
  0.0018665646838066   8   1   6   3
 -0.0001129354519106   8   1   7   1
  0.0002177280730452   8   1   7   2
  0.0001756980728320   8   1   7   3
  0.0174205677793737   8   1   8   1
  0.0096560210910178   8   2   4   1
 -0.0195165990107926   8   2   4   2
 -0.0177491441399628   8   2   4   3
 -0.0113598108908974   8   2   5   1
  0.0174062809674002   8   2   5   2
  0.0191075369251809   8   2   5   3
  0.0023277484283973   8   2   6   1
 -0.0034325970153040   8   2   6   2
 -0.0039153415030678   8   2   6   3
  0.0002177280730452   8   2   7   1
 -0.0002954592858175   8   2   7   2
 -0.0004002152558875   8   2   7   3
 -0.0177145442753868   8   2   8   1
  0.0233019670731052   8   2   8   2
  0.0116057575409928   8   3   4   1
 -0.0177491441399628   8   3   4   2
 -0.0195154595745574   8   3   4   3
 -0.0094651219427476   8   3   5   1
  0.0191075369251809   8   3   5   2
  0.0174048974047890   8   3   5   3
  0.0018665646838066   8   3   6   1
 -0.0039153415030678   8   3   6   2
 -0.0034323241705247   8   3   6   3
  0.0001756980728320   8   3   7   1
 -0.0004002152558875   8   3   7   2
 -0.0002954420360387   8   3   7   3
 -0.0189486886465167   8   3   8   1
  0.0221853707494471   8   3   8   2
  0.0233028086321267   8   3   8   3
 -0.0074599649929604   8   4   1   1
  0.0096560210910178   8   4   2   1
 -0.0195165990107926   8   4   2   2
  0.0116057575409928   8   4   3   1
 -0.0177491441399628   8   4   3   2
 -0.0195154595745574   8   4   3   3
 -0.0752190225897546   8   4   4   4
  0.0726430142696897   8   4   5   4
 -0.0722794449605657   8   4   5   5
 -0.0146148573748525   8   4   6   4
  0.0144781959348928   8   4   6   5
 -0.0032131974584433   8   4   6   6
 -0.0014050212797184   8   4   7   4
  0.0014189941670411   8   4   7   5
 -0.0000048173367032   8   4   7   6
 -0.0003278335088481   8   4   7   7
  0.0507622884584482   8   4   8   4
  0.0051981814206353   8   5   1   1
 -0.0113598108908974   8   5   2   1
  0.0174062809674002   8   5   2   2
 -0.0094651219427476   8   5   3   1
  0.0191075369251809   8   5   3   2
  0.0174048974047890   8   5   3   3
  0.0726430142696897   8   5   4   4
 -0.0722794449605657   8   5   5   4
  0.0698318310846199   8   5   5   5
  0.0144781959348928   8   5   6   4
 -0.0139193379435218   8   5   6   5
  0.0031120883951494   8   5   6   6
  0.0014189941670411   8   5   7   4
 -0.0014628858114307   8   5   7   5
  0.0000573235595082   8   5   7   6
  0.0003525568063190   8   5   7   7
 -0.0490424559876271   8   5   8   4
  0.0490227044356512   8   5   8   5
 -0.0010251047919369   8   6   1   1
  0.0023277484283973   8   6   2   1
 -0.0034325970153040   8   6   2   2
  0.0018665646838066   8   6   3   1
 -0.0039153415030678   8   6   3   2
 -0.0034323241705247   8   6   3   3
 -0.0146148573748525   8   6   4   4
  0.0144781959348928   8   6   5   4
 -0.0139193379435218   8   6   5   5
 -0.0032131974584433   8   6   6   4
  0.0031120883951494   8   6   6   5
 -0.0004655315619041   8   6   6   6
 -0.0000048173367032   8   6   7   4
  0.0000573235595082   8   6   7   5
  0.0003200123937173   8   6   7   6
  0.0002198019419779   8   6   7   7
  0.0099868985899388   8   6   8   4
 -0.0085321682513667   8   6   8   5
  0.0083148789481885   8   6   8   6
 -0.0001129354519106   8   7   1   1
  0.0002177280730452   8   7   2   1
 -0.0002954592858175   8   7   2   2
  0.0001756980728320   8   7   3   1
 -0.0004002152558875   8   7   3   2
 -0.0002954420360387   8   7   3   3
 -0.0014050212797184   8   7   4   4
  0.0014189941670411   8   7   5   4
 -0.0014628858114307   8   7   5   5
 -0.0000048173367032   8   7   6   4
  0.0000573235595082   8   7   6   5
  0.0003200123937173   8   7   6   6
 -0.0003278335088481   8   7   7   4
  0.0003525568063190   8   7   7   5
  0.0002198019419779   8   7   7   6
  0.0002613271280726   8   7   7   7
  0.0008293617189036   8   7   8   4
 -0.0022235067802971   8   7   8   5
 -0.0062745325420122   8   7   8   6
  0.0066210621553705   8   7   8   7
  0.0174205677793737   8   8   1   1
 -0.0177145442753868   8   8   2   1
  0.0233019670731052   8   8   2   2
 -0.0189486886465167   8   8   3   1
  0.0221853707494471   8   8   3   2
  0.0233028086321267   8   8   3   3
  0.0507622884584482   8   8   4   4
 -0.0490424559876271   8   8   5   4
  0.0490227044356512   8   8   5   5
  0.0099868985899388   8   8   6   4
 -0.0085321682513667   8   8   6   5
  0.0083148789481885   8   8   6   6
  0.0008293617189036   8   8   7   4
 -0.0022235067802971   8   8   7   5
 -0.0062745325420122   8   8   7   6
  0.0066210621553705   8   8   7   7
 -0.0365428665795886   8   8   8   4
  0.0353438137344788   8   8   8   5
 -0.0071520490097582   8   8   8   6
 -0.0006409086327517   8   8   8   7
  0.0733647415332852   8   8   8   8
 -0.0053127129466137   9   1   4   1
  0.0116061779974768   9   1   4   2
  0.0096668182322309   9   1   4   3
  0.0073473054986410   9   1   5   1
 -0.0094128078693265   9   1   5   2
 -0.0114362992939581   9   1   5   3
 -0.0012722685636954   9   1   6   1
  0.0021579083101699   9   1   6   2
  0.0019803238179501   9   1   6   3
  0.0000430734175586   9   1   7   1
  0.0005318157887312   9   1   7   2
 -0.0000783748157228   9   1   7   3
  0.0160571739607732   9   1   8   1
 -0.0189460877471457   9   1   8   2
 -0.0177165717895921   9   1   8   3
  0.0174288486740912   9   1   9   1
  0.0116061779974768   9   2   4   1
 -0.0177708653488057   9   2   4   2
 -0.0195165379211652   9   2   4   3
 -0.0094128078693265   9   2   5   1
  0.0192375872643808   9   2   5   2
  0.0173088681216234   9   2   5   3
  0.0021579083101699   9   2   6   1
 -0.0033312045514299   9   2   6   2
 -0.0039680986670302   9   2   6   3
  0.0005318157887312   9   2   7   1
  0.0001440792889124   9   2   7   2
 -0.0008942825976049   9   2   7   3
 -0.0189460877471457   9   2   8   1
  0.0221908607212277   9   2   8   2
  0.0233037005450589   9   2   8   3
 -0.0177008607378307   9   2   9   1
  0.0233265092783914   9   2   9   2
  0.0096668182322309   9   3   4   1
 -0.0195165379211652   9   3   4   2
 -0.0177694542317080   9   3   4   3
 -0.0114362992939581   9   3   5   1
  0.0173088681216234   9   3   5   2
  0.0192364625312813   9   3   5   3
  0.0019803238179501   9   3   6   1
 -0.0039680986670302   9   3   6   2
 -0.0033310097912466   9   3   6   3
 -0.0000783748157228   9   3   7   1
 -0.0008942825976049   9   3   7   2
  0.0001440678481219   9   3   7   3
 -0.0177165717895921   9   3   8   1
  0.0233037005450589   9   3   8   2
  0.0221915302055220   9   3   8   3
 -0.0189625836609912   9   3   9   1
  0.0221761674225000   9   3   9   2
  0.0233273491442728   9   3   9   3
 -0.0053127129466137   9   4   1   1
  0.0116061779974768   9   4   2   1
 -0.0177708653488057   9   4   2   2
  0.0096668182322309   9   4   3   1
 -0.0195165379211652   9   4   3   2
 -0.0177694542317079   9   4   3   3
 -0.0741590817075699   9   4   4   4
  0.0737753923096833   9   4   5   4
 -0.0712594121800693   9   4   5   5
 -0.0148355113863767   9   4   6   4
  0.0142757886244921   9   4   6   5
 -0.0031905477667018   9   4   6   6
 -0.0013785869078257   9   4   7   4
  0.0014433985626000   9   4   7   5
 -0.0000274105845615   9   4   7   6
 -0.0003435988752918   9   4   7   7
  0.0500935551904573   9   4   8   4
 -0.0497609361241613   9   4   8   5
  0.0101228054574280   9   4   8   6
  0.0008196247715070   9   4   8   7
 -0.0361180382171541   9   4   8   8
  0.0508295155606514   9   4   9   4
  0.0073473054986410   9   5   1   1
 -0.0094128078693265   9   5   2   1
  0.0192375872643808   9   5   2   2
 -0.0114362992939581   9   5   3   1
  0.0173088681216234   9   5   3   2
  0.0192364625312813   9   5   3   3
  0.0737753923096833   9   5   4   4
 -0.0712594121800693   9   5   5   4
  0.0709375557264007   9   5   5   5
  0.0142757886244921   9   5   6   4
 -0.0140594115212661   9   5   6   5
  0.0034989599933193   9   5   6   6
  0.0014433985626000   9   5   7   4
 -0.0013645065990179   9   5   7   5
  0.0003992938040945   9   5   7   6
  0.0007145752236169   9   5   7   7
 -0.0497609361241613   9   5   8   4
  0.0483811795869639   9   5   8   5
 -0.0084021326587770   9   5   8   6
 -0.0022458759119038   9   5   8   7
  0.0358231047068320   9   5   8   8
 -0.0490993388617828   9   5   9   4
  0.0490978213576163   9   5   9   5
 -0.0012722685636954   9   6   1   1
  0.0021579083101699   9   6   2   1
 -0.0033312045514299   9   6   2   2
  0.0019803238179501   9   6   3   1
 -0.0039680986670302   9   6   3   2
 -0.0033310097912466   9   6   3   3
 -0.0148355113863767   9   6   4   4
  0.0142757886244921   9   6   5   4
 -0.0140594115212661   9   6   5   5
 -0.0031905477667018   9   6   6   4
  0.0034989599933193   9   6   6   5
  0.0011698918247279   9   6   6   6
 -0.0000274105845615   9   6   7   4
  0.0003992938040945   9   6   7   5
  0.0019681180201914   9   6   7   6
  0.0019367359072796   9   6   7   7
  0.0101228054574280   9   6   8   4
 -0.0084021326587770   9   6   8   5
  0.0082801806542197   9   6   8   6
 -0.0062732756932333   9   6   8   7
 -0.0071168346702463   9   6   8   8
  0.0099973869223812   9   6   9   4
 -0.0085189767103312   9   6   9   5
  0.0083389551212991   9   6   9   6
  0.0000430734175586   9   7   1   1
  0.0005318157887312   9   7   2   1
  0.0001440792889124   9   7   2   2
 -0.0000783748157228   9   7   3   1
 -0.0008942825976049   9   7   3   2
  0.0001440678481219   9   7   3   3
 -0.0013785869078257   9   7   4   4
  0.0014433985626000   9   7   5   4
 -0.0013645065990179   9   7   5   5
 -0.0000274105845615   9   7   6   4
  0.0003992938040945   9   7   6   5
  0.0019681180201914   9   7   6   6
 -0.0003435988752918   9   7   7   4
  0.0007145752236169   9   7   7   5
  0.0019367359072796   9   7   7   6
  0.0019826257674845   9   7   7   7
  0.0008196247715070   9   7   8   4
 -0.0022458759119038   9   7   8   5
 -0.0062732756932333   9   7   8   6
  0.0066126147083053   9   7   8   7
 -0.0007600322576581   9   7   8   8
  0.0008524142715153   9   7   9   4
 -0.0022163769151217   9   7   9   5
 -0.0062343581317428   9   7   9   6
  0.0066530989308665   9   7   9   7
  0.0160571739607732   9   8   1   1
 -0.0189460877471457   9   8   2   1
  0.0221908607212277   9   8   2   2
 -0.0177165717895921   9   8   3   1
  0.0233037005450589   9   8   3   2
  0.0221915302055220   9   8   3   3
  0.0500935551904572   9   8   4   4
 -0.0497609361241613   9   8   5   4
  0.0483811795869639   9   8   5   5
  0.0101228054574280   9   8   6   4
 -0.0084021326587770   9   8   6   5
  0.0082801806542197   9   8   6   6
  0.0008196247715070   9   8   7   4
 -0.0022458759119038   9   8   7   5
 -0.0062732756932333   9   8   7   6
  0.0066126147083053   9   8   7   7
 -0.0361180382171541   9   8   8   4
  0.0358231047068320   9   8   8   5
 -0.0071168346702463   9   8   8   6
 -0.0007600322576581   9   8   8   7
  0.0730789674742925   9   8   8   8
 -0.0365809589796506   9   8   9   4
  0.0354306500781694   9   8   9   5
 -0.0069154431921123   9   8   9   6
 -0.0009047346241682   9   8   9   7
  0.0733567041043763   9   8   9   8
  0.0174288486740912   9   9   1   1
 -0.0177008607378307   9   9   2   1
  0.0233265092783914   9   9   2   2
 -0.0189625836609912   9   9   3   1
  0.0221761674225000   9   9   3   2
  0.0233273491442728   9   9   3   3
  0.0508295155606514   9   9   4   4
 -0.0490993388617828   9   9   5   4
  0.0490978213576163   9   9   5   5
  0.0099973869223812   9   9   6   4
 -0.0085189767103312   9   9   6   5
  0.0083389551212991   9   9   6   6
  0.0008524142715153   9   9   7   4
 -0.0022163769151217   9   9   7   5
 -0.0062343581317428   9   9   7   6
  0.0066530989308665   9   9   7   7
 -0.0365809589796506   9   9   8   4
  0.0354306500781694   9   9   8   5
 -0.0069154431921123   9   9   8   6
 -0.0009047346241682   9   9   8   7
  0.0733567041043763   9   9   8   8
 -0.0361442380482674   9   9   9   4
  0.0359251795212181   9   9   9   5
 -0.0068686431711800   9   9   9   6
 -0.0010086744059893   9   9   9   7
  0.0730692786053064   9   9   9   8
  0.0733686416551729   9   9   9   9
 -0.0001129354519107  10   1   4   1
 -0.0002177280730455  10   1   4   2
  0.0001756980728321  10   1   4   3
  0.0010251047919366  10   1   5   1
  0.0023277484283970  10   1   5   2
 -0.0018665646838061  10   1   5   3
  0.0051981814206344  10   1   6   1
  0.0113598108908955  10   1   6   2
 -0.0094651219427462  10   1   6   3
  0.0074599649929611  10   1   7   1
  0.0096560210910183  10   1   7   2
 -0.0116057575409932  10   1   7   3
  0.0001312120825346  10   1   8   2
  0.0003733186587677  10   1   9   1
  0.0005809181863088  10   1   9   2
 -0.0004118985591494  10   1   9   3
  0.0174205677793732  10   1  10   1
 -0.0002177280730455  10   2   4   1
 -0.0002954592858175  10   2   4   2
  0.0004002152558880  10   2   4   3
  0.0023277484283970  10   2   5   1
  0.0034325970153031  10   2   5   2
 -0.0039153415030675  10   2   5   3
  0.0113598108908955  10   2   6   1
  0.0174062809673974  10   2   6   2
 -0.0191075369251778  10   2   6   3
  0.0096560210910183  10   2   7   1
  0.0195165990107922  10   2   7   2
 -0.0177491441399626  10   2   7   3
  0.0001312120825346  10   2   8   1
 -0.0001643276085787  10   2   8   3
  0.0005809181863088  10   2   9   1
  0.0005159228131668  10   2   9   2
 -0.0007145297559892  10   2   9   3
  0.0177145442753857  10   2  10   1
  0.0233019670731025  10   2  10   2
  0.0001756980728321  10   3   4   1
  0.0004002152558880  10   3   4   2
 -0.0002954420360387  10   3   4   3
 -0.0018665646838061  10   3   5   1
 -0.0039153415030675  10   3   5   2
  0.0034323241705238  10   3   5   3
 -0.0094651219427462  10   3   6   1
 -0.0191075369251778  10   3   6   2
  0.0174048974047865  10   3   6   3
 -0.0116057575409932  10   3   7   1
 -0.0177491441399626  10   3   7   2
  0.0195154595745571  10   3   7   3
 -0.0001643276085787  10   3   8   2
 -0.0004118985591494  10   3   9   1
 -0.0007145297559892  10   3   9   2
  0.0005159383782332  10   3   9   3
 -0.0189486886465156  10   3  10   1
 -0.0221853707494449  10   3  10   2
  0.0233028086321244  10   3  10   3
 -0.0001129354519107  10   4   1   1
 -0.0002177280730455  10   4   2   1
 -0.0002954592858175  10   4   2   2
  0.0001756980728321  10   4   3   1
  0.0004002152558880  10   4   3   2
 -0.0002954420360387  10   4   3   3
  0.0002613271280735  10   4   4   4
 -0.0002198019419792  10   4   5   4
  0.0003200123937181  10   4   5   5
  0.0003525568063189  10   4   6   4
 -0.0000573235595089  10   4   6   5
 -0.0014628858114309  10   4   6   6
  0.0003278335088485  10   4   7   4
 -0.0000048173367029  10   4   7   5
 -0.0014189941670416  10   4   7   6
 -0.0014050212797189  10   4   7   7
 -0.0001497332446373  10   4   8   4
  0.0002054329091792  10   4   8   5
 -0.0000426584272528  10   4   8   6
 -0.0003707131516248  10   4   8   7
  0.0000227090567526  10   4   8   8
 -0.0000074147692941  10   4   9   4
  0.0004182256192028  10   4   9   5
  0.0002583984154427  10   4   9   6
 -0.0000249541672882  10   4   9   7
 -0.0000370985092417  10   4   9   8
  0.0002855202061543  10   4   9   9
  0.0066210621553698  10   4  10   4
  0.0010251047919366  10   5   1   1
  0.0023277484283970  10   5   2   1
  0.0034325970153031  10   5   2   2
 -0.0018665646838061  10   5   3   1
 -0.0039153415030675  10   5   3   2
  0.0034323241705238  10   5   3   3
 -0.0002198019419792  10   5   4   4
  0.0003200123937181  10   5   5   4
  0.0004655315619026  10   5   5   5
 -0.0000573235595089  10   5   6   4
  0.0031120883951488  10   5   6   5
  0.0139193379435191  10   5   6   6
 -0.0000048173367029  10   5   7   4
  0.0032131974584434  10   5   7   5
  0.0144781959348909  10   5   7   6
  0.0146148573748517  10   5   7   7
  0.0002054329091792  10   5   8   4
 -0.0002895984286230  10   5   8   5
 -0.0002681153684997  10   5   8   6
  0.0000426584272526  10   5   8   7
 -0.0009604948637206  10   5   8   8
  0.0004182256192028  10   5   9   4
  0.0000439556407955  10   5   9   5
  0.0002577839357004  10   5   9   6
  0.0006376449998069  10   5   9   7
 -0.0010743609237924  10   5   9   8
 -0.0007109941996411  10   5   9   9
  0.0062745325420120  10   5  10   4
  0.0083148789481883  10   5  10   5
  0.0051981814206344  10   6   1   1
  0.0113598108908955  10   6   2   1
  0.0174062809673974  10   6   2   2
 -0.0094651219427462  10   6   3   1
 -0.0191075369251778  10   6   3   2
  0.0174048974047865  10   6   3   3
  0.0003525568063189  10   6   4   4
 -0.0000573235595089  10   6   5   4
  0.0031120883951488  10   6   5   5
 -0.0014628858114309  10   6   6   4
  0.0139193379435191  10   6   6   5
  0.0698318310846065  10   6   6   6
 -0.0014189941670416  10   6   7   4
  0.0144781959348909  10   6   7   5
  0.0722794449605570  10   6   7   6
  0.0726430142696860  10   6   7   7
 -0.0000426584272528  10   6   8   4
 -0.0002681153684997  10   6   8   5
  0.0002895984286222  10   6   8   6
  0.0002054329091784  10   6   8   7
 -0.0039471975251426  10   6   8   8
  0.0002583984154427  10   6   9   4
  0.0002577839357004  10   6   9   5
  0.0012733834539214  10   6   9   6
  0.0012998748527401  10   6   9   7
 -0.0041519334505128  10   6   9   8
 -0.0039686456746899  10   6   9   9
 -0.0022235067802973  10   6  10   4
  0.0085321682513640  10   6  10   5
  0.0490227044356386  10   6  10   6
  0.0074599649929611  10   7   1   1
  0.0096560210910183  10   7   2   1
  0.0195165990107922  10   7   2   2
 -0.0116057575409932  10   7   3   1
 -0.0177491441399626  10   7   3   2
  0.0195154595745571  10   7   3   3
  0.0003278335088485  10   7   4   4
 -0.0000048173367029  10   7   5   4
  0.0032131974584434  10   7   5   5
 -0.0014189941670416  10   7   6   4
  0.0144781959348909  10   7   6   5
  0.0722794449605570  10   7   6   6
 -0.0014050212797189  10   7   7   4
  0.0146148573748517  10   7   7   5
  0.0726430142696860  10   7   7   6
  0.0752190225897562  10   7   7   7
 -0.0003707131516248  10   7   8   4
  0.0000426584272526  10   7   8   5
  0.0002054329091784  10   7   8   6
  0.0001497332446366  10   7   8   7
  0.0042923814988262  10   7   8   8
 -0.0000249541672882  10   7   9   4
  0.0006376449998069  10   7   9   5
  0.0012998748527401  10   7   9   6
  0.0013257956588694  10   7   9   7
  0.0040623113878458  10   7   9   8
  0.0043213246113115  10   7   9   9
 -0.0008293617189039  10   7  10   4
  0.0099868985899369  10   7  10   5
  0.0490424559876182  10   7  10   6
  0.0507622884584429  10   7  10   7
  0.0001312120825346  10   8   2   1
 -0.0001643276085787  10   8   3   2
 -0.0001497332446373  10   8   4   4
  0.0002054329091792  10   8   5   4
 -0.0002895984286230  10   8   5   5
 -0.0000426584272528  10   8   6   4
 -0.0002681153684997  10   8   6   5
  0.0002895984286222  10   8   6   6
 -0.0003707131516248  10   8   7   4
  0.0000426584272526  10   8   7   5
  0.0002054329091784  10   8   7   6
  0.0001497332446366  10   8   7   7
  0.0000227090567526  10   8   8   4
 -0.0009604948637206  10   8   8   5
 -0.0039471975251426  10   8   8   6
  0.0042923814988262  10   8   8   7
 -0.0002130001854398  10   8   8   8
 -0.0000370985092417  10   8   9   4
 -0.0010743609237924  10   8   9   5
 -0.0041519334505128  10   8   9   6
  0.0040623113878458  10   8   9   7
 -0.0002707061687639  10   8   9   8
 -0.0005367877309668  10   8   9   9
 -0.0042923814988262  10   8  10   4
 -0.0039471975251431  10   8  10   5
  0.0009604948637202  10   8  10   6
  0.0000227090567522  10   8  10   7
  0.0052849607438954  10   8  10   8
  0.0003733186587677  10   9   1   1
  0.0005809181863088  10   9   2   1
  0.0005159228131668  10   9   2   2
 -0.0004118985591494  10   9   3   1
 -0.0007145297559892  10   9   3   2
  0.0005159383782332  10   9   3   3
 -0.0000074147692941  10   9   4   4
  0.0004182256192028  10   9   5   4
  0.0000439556407955  10   9   5   5
  0.0002583984154427  10   9   6   4
  0.0002577839357004  10   9   6   5
  0.0012733834539214  10   9   6   6
 -0.0000249541672882  10   9   7   4
  0.0006376449998069  10   9   7   5
  0.0012998748527401  10   9   7   6
  0.0013257956588694  10   9   7   7
 -0.0000370985092417  10   9   8   4
 -0.0010743609237924  10   9   8   5
 -0.0041519334505128  10   9   8   6
  0.0040623113878458  10   9   8   7
 -0.0002707061687639  10   9   8   8
  0.0002855202061543  10   9   9   4
 -0.0007109941996411  10   9   9   5
 -0.0039686456746899  10   9   9   6
  0.0043213246113115  10   9   9   7
 -0.0005367877309668  10   9   9   8
 -0.0002689710592403  10   9   9   9
  0.0040443076586481  10   9  10   4
  0.0044069481748234  10   9  10   5
  0.0001505486478941  10   9  10   6
  0.0010200736344248  10   9  10   7
  0.0000057370045036  10   9  10   8
  0.0053407176705527  10   9  10   9
  0.0174205677793732  10  10   1   1
  0.0177145442753857  10  10   2   1
  0.0233019670731025  10  10   2   2
 -0.0189486886465156  10  10   3   1
 -0.0221853707494449  10  10   3   2
  0.0233028086321244  10  10   3   3
  0.0066210621553698  10  10   4   4
  0.0062745325420120  10  10   5   4
  0.0083148789481883  10  10   5   5
 -0.0022235067802973  10  10   6   4
  0.0085321682513640  10  10   6   5
  0.0490227044356386  10  10   6   6
 -0.0008293617189039  10  10   7   4
  0.0099868985899369  10  10   7   5
  0.0490424559876182  10  10   7   6
  0.0507622884584429  10  10   7   7
 -0.0042923814988262  10  10   8   4
 -0.0039471975251431  10  10   8   5
  0.0009604948637202  10  10   8   6
  0.0000227090567522  10  10   8   7
  0.0052849607438954  10  10   8   8
  0.0040443076586481  10  10   9   4
  0.0044069481748234  10  10   9   5
  0.0001505486478941  10  10   9   6
  0.0010200736344248  10  10   9   7
  0.0000057370045036  10  10   9   8
  0.0053407176705527  10  10   9   9
 -0.0006409086327522  10  10  10   4
  0.0071520490097556  10  10  10   5
  0.0353438137344655  10  10  10   6
  0.0365428665795836  10  10  10   7
  0.0002130001854393  10  10  10   8
  0.0019698771386438  10  10  10   9
  0.0733647415332756  10  10  10  10
 -0.0000430734175583  11   1   4   1
  0.0005318157887314  11   1   4   2
  0.0000783748157224  11   1   4   3
 -0.0012722685636954  11   1   5   1
 -0.0021579083101698  11   1   5   2
  0.0019803238179502  11   1   5   3
 -0.0073473054986409  11   1   6   1
 -0.0094128078693265  11   1   6   2
  0.0114362992939582  11   1   6   3
 -0.0053127129466154  11   1   7   1
 -0.0116061779974791  11   1   7   2
  0.0096668182322330  11   1   7   3
  0.0003733186587678  11   1   8   1
 -0.0005809181863086  11   1   8   2
 -0.0004118985591494  11   1   8   3
 -0.0009549515169082  11   1   9   2