 &FCI NORB=  16,NELEC=16,MS2=0,
  ORBSYM=1,1,1,1,1,1,1,1,1,1,1,1,1,1,1,1,
  ISYM=1,
 &END
 4    1    1    1    1
 4    2    2    2    2
 4    3    3    3    3
 4    4    4    4    4
 4    5    5    5    5
 4    6    6    6    6
 4    7    7    7    7
 4    8    8    8    8
 4    9    9    9    9
 4   10   10   10   10
 4   11   11   11   11
 4   12   12   12   12
 4   13   13   13   13
 4   14   14   14   14
 4   15   15   15   15
 4   16   16   16   16
 -1    2    1  0  0
 -1    3    2  0  0
 -1    4    1  0  0
 -1    4    3  0  0
 -1    5    1  0  0
 -1    6    2  0  0
 -1    6    5  0  0
 -1    7    3  0  0
 -1    7    6  0  0
 -1    8    4  0  0
 -1    8    5  0  0
 -1    8    7  0  0
 -1    9    5  0  0
 -1   10    6  0  0
 -1   10    9  0  0
 -1   11    7  0  0
 -1   11   10  0  0
 -1   12    8  0  0
 -1   12    9  0  0
 -1   12   11  0  0
 -1   13    1  0  0
 -1   13    9  0  0
 -1   14    2  0  0
 -1   14   10  0  0
 -1   14   13  0  0
 -1   15    3  0  0
 -1   15   11  0  0
 -1   15   14  0  0
 -1   16    4  0  0
 -1   16   12  0  0
 -1   16   13  0  0
 -1   16   15  0  0
 0  0  0  0  0
