 &FCI NORB=  16,NELEC=16,MS2=0,
  ORBSYM=1,1,1,1,1,1,1,1,1,1,1,1,1,1,1,1,
  ISYM=1,
 &END
 0.2500000000003436    1    1    1    1
 6.184615648040487e-08    1    1    2    1
 0.2500000685769415    1    1    2    2
 3.975766071062879e-08    1    1    3    1
 -1.656151744616587e-07    1    1    3    2
 0.250000122065112    1    1    3    3
 3.418608015749998e-08    1    1    4    1
 5.196775240166168e-09    1    1    4    2
 -3.211166087757524e-08    1    1    4    3
 0.2500000402799812    1    1    4    4
 -1.298374970581606e-08    1    1    5    1
 -9.566916263053957e-09    1    1    5    2
 -7.649569398952687e-08    1    1    5    3
 4.304118992791412e-08    1    1    5    4
 0.2499997690780834    1    1    5    5
 -6.498301338038383e-09    1    1    6    1
 -2.405815040028461e-08    1    1    6    2
 -6.388961449060518e-09    1    1    6    3
 -3.082301982414043e-08    1    1    6    4
 4.395457604975592e-08    1    1    6    5
 0.2500001491948433    1    1    6    6
 5.060858379337202e-08    1    1    7    1
 -1.058588635713165e-08    1    1    7    2
 4.318882902479823e-08    1    1    7    3
 -2.964303344382742e-08    1    1    7    4
 4.505112713654402e-08    1    1    7    5
 -1.689158819184929e-07    1    1    7    6
 0.2500000760860208    1    1    7    7
 2.901635296015183e-08    1    1    8    1
 1.683791528693517e-08    1    1    8    2
 4.07129490036718e-08    1    1    8    3
 2.488896148816577e-08    1    1    8    4
 5.062843301664376e-08    1    1    8    5
 -2.809285621949318e-08    1    1    8    6
 -6.093274957222036e-08    1    1    8    7
 0.2499997747181537    1    1    8    8
 1.633812420320417e-07    1    1    9    1
 -1.007516740207083e-07    1    1    9    2
 -2.406719652912854e-08    1    1    9    3
 5.48744574592069e-10    1    1    9    4
 2.615512237012806e-08    1    1    9    5
 -5.14499574381759e-08    1    1    9    6
 1.460103032810446e-07    1    1    9    7
 -4.497331386860109e-08    1    1    9    8
 0.2500001252145437    1    1    9    9
 -1.346454122069202e-07    1    1   10    1
 -3.42155021624245e-08    1    1   10    2
 1.107239690067922e-08    1    1   10    3
 -2.194970329853699e-08    1    1   10    4
 2.491525756696154e-08    1    1   10    5
 8.288328099762935e-09    1    1   10    6
 -8.044220571675169e-08    1    1   10    7
 3.603644503337501e-08    1    1   10    8
 -1.001849877771432e-07    1    1   10    9
 0.2499999971352007    1    1   10   10
 1.590253893689865e-07    1    1   11    1
 1.624190364046138e-08    1    1   11    2
 -1.828548962910234e-08    1    1   11    3
 -3.419438362131625e-09    1    1   11    4
 2.029039948991403e-08    1    1   11    5
 -5.649756927629423e-08    1    1   11    6
 -1.251862169273474e-07    1    1   11    7
 1.003619484032148e-10    1    1   11    8
 4.448853424389516e-08    1    1   11    9
 5.762302800211298e-08    1    1   11   10
 0.2499998776511492    1    1   11   11
 -2.580761638208417e-08    1    1   12    1
 1.153515974208531e-07    1    1   12    2
 -1.517387308609371e-07    1    1   12    3
 -5.981968078360822e-08    1    1   12    4
 4.291666056793169e-08    1    1   12    5
 8.912286789642395e-08    1    1   12    6
 3.302659816255659e-08    1    1   12    7
 2.050265396722802e-08    1    1   12    8
 -1.63081336522348e-08    1    1   12    9
 3.190453187987429e-08    1    1   12   10
 -4.268373827644875e-08    1    1   12   11
 0.2500000685756463    1    1   12   12
 3.411549309183752e-08    1    1   13    1
 -1.517394143376137e-07    1    1   13    2
 6.50864895606289e-08    1    1   13    3
 8.758043006732557e-08    1    1   13    4
 9.739262825494502e-08    1    1   13    5
 2.141363682281316e-08    1    1   13    6
 4.105528044959215e-08    1    1   13    7
 -3.177847598345577e-09    1    1   13    8
 -2.719812858719909e-08    1    1   13    9
 -4.102828121269941e-08    1    1   13   10
 4.750927327449126e-09    1    1   13   11
 -1.656148633529288e-07    1    1   13   12
 0.2500001220663118    1    1   13   13
 1.309626121617219e-08    1    1   14    1
 5.981989041826648e-08    1    1   14    2
 -8.757998464006711e-08    1    1   14    3
 -1.70300322690365e-07    1    1   14    4
 -3.56281922919015e-08    1    1   14    5
 -2.344395437128932e-08    1    1   14    6
 -1.571110641825612e-08    1    1   14    7
 3.257082814157139e-08    1    1   14    8
 -1.72864300801349e-08    1    1   14    9
 -2.650608106574953e-08    1    1   14   10
 -9.1280660492296e-09    1    1   14   11
 -5.196691941166016e-09    1    1   14   12
 3.21117744604446e-08    1    1   14   13
 0.2500000402798542    1    1   14   14
 2.652121730303628e-08    1    1   15    1
 -4.291622297176809e-08    1    1   15    2
 -9.739283043293221e-08    1    1   15    3
 -3.562824123210601e-08    1    1   15    4
 1.356367538489916e-07    1    1   15    5
 1.431984801496974e-08    1    1   15    6
 -1.580511950445628e-08    1    1   15    7
 -3.019205077401018e-08    1    1   15    8
 2.748759936028918e-08    1    1   15    9
 4.123420931897567e-08    1    1   15   10
 -6.64767010011587e-08    1    1   15   11
 9.567247984570135e-09    1    1   15   12
 7.649569380154731e-08    1    1   15   13
 4.304146964170699e-08    1    1   15   14
 0.249999769077979    1    1   15   15
 -5.377544812927543e-08    1    1   16    1
 2.580768821888527e-08    1    1   16    2
 -3.411540488558453e-08    1    1   16    3
 1.309628581270516e-08    1    1   16    4
 2.652124226332429e-08    1    1   16    5
 9.824553014282497e-08    1    1   16    6
 -9.748585042793816e-08    1    1   16    7
 -9.584518748322895e-08    1    1   16    8
 -1.438670089616828e-07    1    1   16    9
 -7.909688551415668e-08    1    1   16   10
 -1.35134167681581e-07    1    1   16   11
 -6.184633814593771e-08    1    1   16   12
 -3.975736844485185e-08    1    1   16   13
 3.418614002530971e-08    1    1   16   14
 -1.298384273308872e-08    1    1   16   15
 0.2499999999998416    1    1   16   16
 6.184615648387431e-08    2    1    1    1
 0.2500000685769415    2    1    2    1
 -7.405304974055207e-08    2    1    2    2
 -1.656151744560567e-07    2    1    3    1
 -9.448026340367667e-08    2    1    3    2
 -8.466513207702783e-08    2    1    3    3
 5.196775244761013e-09    2    1    4    1
 -6.13081155392786e-08    2    1    4    2
 4.26439756784086e-09    2    1    4    3
 8.431991387281552e-09    2    1    4    4
 -9.566916254630917e-09    2    1    5    1
 4.539309242701406e-08    2    1    5    2
 -7.913976152263883e-10    2    1    5    3
 4.114093417628903e-08    2    1    5    4
 -8.647384805644302e-08    2    1    5    5
 -2.405815039528994e-08    2    1    6    1
 -0.1448062659621617    2    1    6    2
 0.1170593687014806    2    1    6    3
 -0.03776907236413676    2    1    6    4
 0.08561039997355566    2    1    6    5
 1.214021179040295e-07    2    1    6    6
 -1.058588635910312e-08    2    1    7    1
 0.1107340116461757    2    1    7    2
 0.006503864234513981    2    1    7    3
 -0.1460964779452439    2    1    7    4
 0.08426429440485782    2    1    7    5
 5.50454622791639e-09    2    1    7    6
 -1.372167655026237e-07    2    1    7    7
 1.683791528495821e-08    2    1    8    1
 0.01610312209268328    2    1    8    2
 0.05478882516582485    2    1    8    3
 0.0785146471418096    2    1    8    4
 -0.01216267048491681    2    1    8    5
 1.433877177252385e-08    2    1    8    6
 -1.20535265849855e-07    2    1    8    7
 -5.665653408986012e-08    2    1    8    8
 -1.007516740320461e-07    2    1    9    1
 -0.118306701383571    2    1    9    2
 -0.1960208535507487    2    1    9    3
 -0.04848087343011306    2    1    9    4
 0.01520173420286492    2    1    9    5
 -1.047078592070131e-07    2    1    9    6
 -3.699474564265161e-08    2    1    9    7
 -5.163514402393325e-08    2    1    9    8
 2.479920939538982e-07    2    1    9    9
 -3.421550216956982e-08    2    1   10    1
 -0.09914167670371518    2    1   10    2
 0.0249828464782249    2    1   10    3
 -0.08757534512853385    2    1   10    4
 0.08732281788127523    2    1   10    5
 1.084605327836719e-07    2    1   10    6
 1.31511952598176e-07    2    1   10    7
 1.610135856180821e-08    2    1   10    8
 3.663173949993436e-08    2    1   10    9
 1.146074636150396e-07    2    1   10   10
 1.62419036357084e-08    2    1   11    1
 0.1013173835367144    2    1   11    2
 -0.04510043131503083    2    1   11    3
 0.01445377988949711    2    1   11    4
 0.02217847060000754    2    1   11    5
 -3.428301673315847e-08    2    1   11    6
 -2.190412024471015e-08    2    1   11    7
 -2.416479123663251e-08    2    1   11    8
 2.378157841690428e-08    2    1   11    9
 -3.643934742057358e-08    2    1   11   10
 6.321482256710027e-09    2    1   11   11
 1.15351597422673e-07    2    1   12    1
 1.113963561383795e-07    2    1   12    2
 4.290258778669117e-08    2    1   12    3
 -5.768498105015712e-08    2    1   12    4
 7.185607518835804e-08    2    1   12    5
 0.1188615555327125    2    1   12    6
 0.1685414918495839    2    1   12    7
 0.09156191070772242    2    1   12    8
 0.1022040792860012    2    1   12    9
 -0.005842204902331569    2    1   12   10
 -0.07863395372389688    2    1   12   11
 2.391574152543006e-07    2    1   12   12
 -1.517394143376048e-07    2    1   13    1
 -2.762412192439525e-08    2    1   13    2
 -1.158325087656479e-07    2    1   13    3
 -4.309305236382673e-09    2    1   13    4
 -7.312008616026719e-08    2    1   13    5
 0.1168643254447902    2    1   13    6
 -0.003905103277184053    2    1   13    7
 0.05183118891292767    2    1   13    8
 -0.1995284415891794    2    1   13    9
 -0.004160859571549706    2    1   13   10
 -0.04051414671070249    2    1   13   11
 -3.646578196837678e-08    2    1   13   12
 -1.852208611657395e-07    2    1   13   13
 5.981989041315119e-08    2    1   14    1
 1.351988555811861e-08    2    1   14    2
 1.995117669084194e-08    2    1   14    3
 -9.584529669624877e-08    2    1   14    4
 1.166995445997912e-07    2    1   14    5
 -0.109388260552285    2    1   14    6
 -0.01342840429658191    2    1   14    7
 0.06779432764194394    2    1   14    8
 -0.008350971615988528    2    1   14    9
 -0.1457407948859667    2    1   14   10
 -0.03334261531431315    2    1   14   11
 9.267569306435275e-08    2    1   14   12
 5.057619654352636e-08    2    1   14   13
 -7.270915253844803e-08    2    1   14   14
 -4.291622297058893e-08    2    1   15    1
 -5.410707517307425e-08    2    1   15    2
 2.671971370467575e-08    2    1   15    3
 4.651753830842381e-08    2    1   15    4
 -2.367814085115442e-08    2    1   15    5
 0.04536591010705021    2    1   15    6
 0.03747079834424722    2    1   15    7
 -0.07917497405131932    2    1   15    8
 0.05018436475087996    2    1   15    9
 0.09848270380029872    2    1   15   10
 -0.03126647855828044    2    1   15   11
 -3.358521356957775e-08    2    1   15   12
 -8.415496723874327e-09    2    1   15   13
 2.827468682353355e-08    2    1   15   14
 -4.091731601966491e-08    2    1   15   15
 2.58076882212349e-08    2    1   16    1
 -7.437629460648346e-08    2    1   16    2
 4.820234459462491e-08    2    1   16    3
 2.308109227822447e-08    2    1   16    4
 -4.381018403540447e-08    2    1   16    5
 7.119118542484183e-09    2    1   16    6
 1.082652042377261e-07    2    1   16    7
 5.261814585298347e-08    2    1   16    8
 -2.516330700070887e-08    2    1   16    9
 8.385108506684943e-09    2    1   16   10
 -2.340283867243828e-08    2    1   16   11
 -0.2499999392649991    2    1   16   12
 1.084561285250146e-06    2    1   16   13
 1.695114457100967e-07    2    1   16   14
 -8.35890353740614e-08    2    1   16   15
 -6.18460608531012e-08    2    1   16   16
 0.2500000685769415    2    2    1    1
 -7.405304974873945e-08    2    2    2    1
 0.5203237768016035    2    2    2    2
 -9.448026342051807e-08    2    2    3    1
 0.003183413016391494    2    2    3    2
 0.2313173413852184    2    2    3    3
 -6.1308115538084e-08    2    2    4    1
 0.02575235252904063    2    2    4    2
 0.0223751900169629    2    2    4    3
 0.1566559313084562    2    2    4    4
 4.539309241881457e-08    2    2    5    1
 -0.04588232058455118    2    2    5    2
 0.03241849623374066    2    2    5    3
 -0.09825142362211897    2    2    5    4
 0.09170321351036564    2    2    5    5
 -0.1448062659621617    2    2    6    1
 4.872999619662135e-08    2    2    6    2
 1.120447563733091e-07    2    2    6    3
 1.248263589538834e-07    2    2    6    4
 -1.254515986751403e-07    2    2    6    5
 0.3409462188685554    2    2    6    6
 0.1107340116461758    2    2    7    1
 -2.745492202131096e-09    2    2    7    2
 -8.055281540219898e-08    2    2    7    3
 -2.027011185531576e-09    2    2    7    4
 -4.290154566409442e-08    2    2    7    5
 0.08081514411757233    2    2    7    6
 0.2830192237553881    2    2    7    7
 0.01610312209268328    2    2    8    1
 -7.978007608110832e-08    2    2    8    2
 -3.912720516119967e-08    2    2    8    3
 -2.781456871676953e-08    2    2    8    4
 4.045937226852851e-08    2    2    8    5
 0.02403079826182853    2    2    8    6
 0.003985469705824366    2    2    8    7
 0.1260337168205542    2    2    8    8
 -0.118306701383571    2    2    9    1
 2.274202441332315e-07    2    2    9    2
 1.387813808986997e-08    2    2    9    3
 1.77309194711585e-08    2    2    9    4
 -1.860795056726844e-09    2    2    9    5
 -0.04264576679045708    2    2    9    6
 0.05594278016166836    2    2    9    7
 -0.08863803665387344    2    2    9    8
 0.4313902603501867    2    2    9    9
 -0.09914167670371522    2    2   10    1
 2.57483574371729e-08    2    2   10    2
 9.795248205369264e-08    2    2   10    3
 4.736483020417533e-08    2    2   10    4
 -7.625370078429469e-08    2    2   10    5
 0.1891743611011543    2    2   10    6
 0.05606276439345736    2    2   10    7
 -0.106376410992019    2    2   10    8
 0.07519065490920657    2    2   10    9
 0.2269544022562573    2    2   10   10
 0.1013173835367144    2    2   11    1
 -6.85236120729209e-08    2    2   11    2
 -6.303203681347268e-08    2    2   11    3
 -9.179006059468005e-09    2    2   11    4
 -1.306701007877503e-08    2    2   11    5
 -0.1218014389416056    2    2   11    6
 -0.01254224517505106    2    2   11    7
 -0.03623634360407542    2    2   11    8
 -0.01901251486756323    2    2   11    9
 -0.03236986200412226    2    2   11   10
 0.09165629941362986    2    2   11   11
 1.113963561295014e-07    2    2   12    1
 -0.06621359277509474    2    2   12    2
 0.01357199308901611    2    2   12    3
 -0.110014008225113    2    2   12    4
 0.09025490250230209    2    2   12    5
 -1.623563861170168e-07    2    2   12    6
 -9.58671115019123e-08    2    2   12    7
 -8.974429399062813e-08    2    2   12    8
 6.369780016672419e-08    2    2   12    9
 -9.818443297967134e-09    2    2   12   10
 5.154423433534512e-08    2    2   12   11
 0.520323697432732    2    2   12   12
 -2.762412191782646e-08    2    2   13    1
 0.01357136961298941    2    2   13    2
 0.2293175356493971    2    2   13    3
 0.03871308534902693    2    2   13    4
 0.01900111359546287    2    2   13    5
 -5.583605220926854e-08    2    2   13    6
 -1.321693894194136e-07    2    2   13    7
 -6.292008158978897e-08    2    2   13    8
 2.122482375497427e-08    2    2   13    9
 6.967793829859067e-09    2    2   13   10
 2.548277962530116e-10    2    2   13   11
 0.003182174446243298    2    2   13   12
 0.2313170310395684    2    2   13   13
 1.351988557324926e-08    2    2   14    1
 0.1100143458840537    2    2   14    2
 -0.03871261819244334    2    2   14    3
 0.09640976635475329    2    2   14    4
 -0.09965523620805371    2    2   14    5
 1.263382645159334e-07    2    2   14    6
 1.228967209291488e-07    2    2   14    7
 -5.535096211922355e-08    2    2   14    8
 7.860183928156888e-08    2    2   14    9
 7.575298647898504e-08    2    2   14   10
 -2.021347323982505e-08    2    2   14   11
 -0.0257526764740465    2    2   14   12
 -0.02237501201215356    2    2   14   13
 0.1566561354643547    2    2   14   14
 -5.410707517949038e-08    2    2   15    1
 -0.09025468905353523    2    2   15    2
 -0.0190014697229904    2    2   15    3
 -0.09965495777438878    2    2   15    4
 0.06669383897014149    2    2   15    5
 -2.790427486031332e-08    2    2   15    6
 -4.836076170095609e-08    2    2   15    7
 5.147974627411815e-08    2    2   15    8
 -3.130475932166029e-08    2    2   15    9
 -4.388636650146059e-09    2    2   15   10
 1.836622925440429e-09    2    2   15   11
 0.04588216871181694    2    2   15   12
 -0.03241861005614584    2    2   15   13
 -0.09825129719915429    2    2   15   14
 0.09170287305798376    2    2   15   15
 -7.437629461448512e-08    2    2   16    1
 -1.229841050641459e-07    2    2   16    2
 7.032705523632019e-08    2    2   16    3
 -2.63517694689242e-08    2    2   16    4
 1.085536359373618e-08    2    2   16    5
 -0.1188612167823809    2    2   16    6
 -0.1685414023231821    2    2   16    7
 -0.09156163637232563    2    2   16    8
 -0.1022047113323254    2    2   16    9
 0.005842047598483658    2    2   16   10
 0.07863378455360022    2    2   16   11
 5.521802038079955e-08    2    2   16   12
 1.375444399003556e-07    2    2   16   13
 -1.358352875399689e-07    2    2   16   14
 6.488122430301332e-08    2    2   16   15
 0.2499998099582118    2    2   16   16
 3.97576607240729e-08    3    1    1    1
 -1.656151744560567e-07    3    1    2    1
 -9.448026340367667e-08    3    1    2    2
 0.250000122065112    3    1    3    1
 -8.466513208045904e-08    3    1    3    2
 1.098001407352729e-07    3    1    3    3
 -3.211166087445108e-08    3    1    4    1
 4.264397571805491e-09    3    1    4    2
 -5.57989414307329e-08    3    1    4    3
 5.977858636015484e-08    3    1    4    4
 -7.649569398665587e-08    3    1    5    1
 -7.913976152967613e-10    3    1    5    2
 4.13608071351389e-08    3    1    5    3
 3.469886520473992e-08    3    1    5    4
 -1.59333969481649e-07    3    1    5    5
 -6.3889614532736e-09    3    1    6    1
 0.1170593687014806    3    1    6    2
 0.1152199246854557    3    1    6    3
 -0.1024720576815059    3    1    6    4
 -0.08387823071183297    3    1    6    5
 -9.616737568966651e-08    3    1    6    6
 4.318882902577306e-08    3    1    7    1
 0.006503864234513981    3    1    7    2
 0.126085654563866    3    1    7    3
 0.04848686961957561    3    1    7    4
 0.03478305890041542    3    1    7    5
 -7.52598832677559e-08    3    1    7    6
 5.59540389210968e-08    3    1    7    7
 4.071294899867596e-08    3    1    8    1
 0.05478882516582486    3    1    8    2
 0.08569125345024135    3    1    8    3
 0.06739237129685503    3    1    8    4
 0.1218524805813932    3    1    8    5
 -8.872248312643285e-08    3    1    8    6
 -5.68913320728276e-08    3    1    8    7
 -7.433996212378587e-08    3    1    8    8
 -2.406719652951281e-08    3    1    9    1
 -0.1960208535507487    3    1    9    2
 0.0871431010093206    3    1    9    3
 0.02944407622649744    3    1    9    4
 -0.03416404400257719    3    1    9    5
 -1.33991826829147e-07    3    1    9    6
 3.798136790932336e-08    3    1    9    7
 -4.265561920659847e-08    3    1    9    8
 1.328212088541534e-07    3    1    9    9
 1.10723969017762e-08    3    1   10    1
 0.02498284647822491    3    1   10    2
 -0.1334701273361585    3    1   10    3
 0.06008891680646061    3    1   10    4
 0.1158780040126946    3    1   10    5
 -6.828922280679966e-08    3    1   10    6
 -1.911002979066084e-08    3    1   10    7
 7.508068833149208e-08    3    1   10    8
 -3.989511685727433e-08    3    1   10    9
 6.370753528189068e-08    3    1   10   10
 -1.828548962731622e-08    3    1   11    1
 -0.04510043131503083    3    1   11    2
 -0.06169532673746207    3    1   11    3
 -0.06177019709781315    3    1   11    4
 -0.02377500692306972    3    1   11    5
 3.271647455567512e-08    3    1   11    6
 -5.023894165077667e-08    3    1   11    7
 -4.135402772978653e-08    3    1   11    8
 3.857915426091806e-08    3    1   11    9
 3.032711555044133e-08    3    1   11   10
 -1.531614597133399e-08    3    1   11   11
 -1.517387308566955e-07    3    1   12    1
 4.290258779922763e-08    3    1   12    2
 3.89672965160674e-09    3    1   12    3
 4.284900354933587e-08    3    1   12    4
 -5.143202121849443e-10    3    1   12    5
 0.1168642989807349    3    1   12    6
 -0.003903774212281632    3    1   12    7
 0.05183164217690335    3    1   12    8
 -0.1995285290576541    3    1   12    9
 -0.00416068848723385    3    1   12   10
 -0.04051410546685519    3    1   12   11
 -1.435235119723525e-08    3    1   12   12
 6.508648954984795e-08    3    1   13    1
 -1.158325087664554e-07    3    1   13    2
 -5.640081657696624e-08    3    1   13    3
 3.010130365215332e-08    3    1   13    4
 3.508120725725609e-08    3    1   13    5
 -0.1420436111391421    3    1   13    6
 0.1622675323718242    3    1   13    7
 0.02503500498428482    3    1   13    8
 -0.1043378664464676    3    1   13    9
 0.02503745536419005    3    1   13   10
 0.08416420251322874    3    1   13   11
 -2.166383041833471e-08    3    1   13   12
 1.758122555763616e-07    3    1   13   13
 -8.75799846379907e-08    3    1   14    1
 1.995117668914847e-08    3    1   14    2
 5.20846319017328e-08    3    1   14    3
 -3.613108694017637e-08    3    1   14    4
 -4.469009780585641e-08    3    1   14    5
 -0.02056827343211083    3    1   14    6
 -0.05401262626219251    3    1   14    7
 0.09680481318639049    3    1   14    8
 -0.03279685498639368    3    1   14    9
 0.1082231398417687    3    1   14   10
 -0.01367047512495599    3    1   14   11
 3.185370405976367e-08    3    1   14   12
 2.505929854909649e-09    3    1   14   13
 -2.66461541075355e-08    3    1   14   14
 -9.73928304173753e-08    3    1   15    1
 2.671971370344755e-08    3    1   15    2
 -8.582381274374728e-08    3    1   15    3
 -1.259061758933584e-09    3    1   15    4
 -2.668604159103048e-08    3    1   15    5
 -0.1083091452139001    3    1   15    6
 -0.02839524980501062    3    1   15    7
 0.07076971771190696    3    1   15    8
 0.001178767655972605    3    1   15    9
 0.1357755825479791    3    1   15   10
 -0.04766213786698601    3    1   15   11
 -1.268664897499231e-08    3    1   15   12
 -1.43973134727411e-08    3    1   15   13
 -1.069198628896853e-08    3    1   15   14
 -1.172373671158408e-07    3    1   15   15
 -3.411540488182767e-08    3    1   16    1
 4.820234459457917e-08    3    1   16    2
 -8.54082291306726e-08    3    1   16    3
 -2.074473859736533e-09    3    1   16    4
 -9.245514000350097e-08    3    1   16    5
 -6.560902440523948e-08    3    1   16    6
 1.060815034333913e-09    3    1   16    7
 -4.47515467569589e-08    3    1   16    8
 -2.250152673529973e-09    3    1   16    9
 4.662380380568796e-09    3    1   16   10
 -7.092933212852051e-08    3    1   16   11
 -8.981710389676812e-07    3    1   16   12
 -0.2499999962483071    3    1   16   13
 6.770610502507483e-09    3    1   16   14
 -1.045401072649737e-07    3    1   16   15
 -3.975783870120537e-08    3    1   16   16
 -1.656151744560567e-07    3    2    1    1
 -9.448026343439585e-08    3    2    2    1
 0.003183413016391487    3    2    2    2
 -8.46651320805216e-08    3    2    3    1
 0.2313173413852184    3    2    3    2
 0.005474920373354411    3    2    3    3
 4.26439756914188e-09    3    2    4    1
 0.02237519001696291    3    2    4    2
 -0.03788876839943379    3    2    4    3
 -0.02201912374854915    3    2    4    4
 -7.913976171555566e-10    3    2    5    1
 0.03241849623374066    3    2    5    2
 0.0309909618114384    3    2    5    3
 -0.004727465186489507    3    2    5    4
 0.01336088845290037    3    2    5    5
 0.1170593687014806    3    2    6    1
 1.120447563687481e-07    3    2    6    2
 -5.12601476304094e-08    3    2    6    3
 -5.825592664601628e-09    3    2    6    4
 1.952403181643444e-08    3    2    6    5
 -0.04858663234622033    3    2    6    6
 0.006503864234513985    3    2    7    1
 -8.055281540492089e-08    3    2    7    2
 -2.279046137183166e-07    3    2    7    3
 -1.028327634429324e-08    3    2    7    4
 -9.93575197139707e-08    3    2    7    5
 0.1523344154477777    3    2    7    6
 -0.01697116619934837    3    2    7    7
 0.05478882516582485    3    2    8    1
 -3.912720516408801e-08    3    2    8    2
 -9.309148037414294e-08    3    2    8    3
 -2.279342098513461e-08    3    2    8    4
 -1.356503739765091e-08    3    2    8    5
 0.04676563442985931    3    2    8    6
 0.06814489816120491    3    2    8    7
 0.06555786606634724    3    2    8    8
 -0.1960208535507487    3    2    9    1
 1.387813809529444e-08    3    2    9    2
 -1.74929489459534e-08    3    2    9    3
 8.5499900908121e-08    3    2    9    4
 -7.633028226933076e-08    3    2    9    5
 0.009121784099839722    3    2    9    6
 -0.2442266138868124    3    2    9    7
 -0.0865948507633026    3    2    9    8
 0.01968308796323937    3    2    9    9
 0.0249828464782249    3    2   10    1
 9.795248205453208e-08    3    2   10    2
 6.880656097417894e-08    3    2   10    3
 2.220493008740861e-08    3    2   10    4
 -4.132404839696099e-09    3    2   10    5
 -0.05935217333158306    3    2   10    6
 0.02287713843379575    3    2   10    7
 -0.02439299920737001    3    2   10    8
 0.09017907407998324    3    2   10    9
 -0.01374261343589862    3    2   10   10
 -0.04510043131503083    3    2   11    1
 -6.303203681634766e-08    3    2   11    2
 -1.55367165806698e-08    3    2   11    3
 6.549458863350933e-09    3    2   11    4
 -3.987307041044522e-08    3    2   11    5
 0.01583914999393166    3    2   11    6
 -0.02853486802092382    3    2   11    7
 -0.02067008826166992    3    2   11    8
 -0.01259626105369021    3    2   11    9
 0.01379357514920908    3    2   11   10
 -0.005940355657525158    3    2   11   11
 4.290258777939804e-08    3    2   12    1
 0.01357199308901613    3    2   12    2
 0.2293177354097751    3    2   12    3
 0.03871241442791077    3    2   12    4
 0.01900158855110591    3    2   12    5
 7.149908481520452e-08    3    2   12    6
 -8.818542149424141e-08    3    2   12    7
 1.742270800380041e-08    3    2   12    8
 -2.324865838679711e-07    3    2   12    9
 5.79819720410826e-09    3    2   12   10
 -1.402387516155251e-08    3    2   12   11
 0.003185153882621821    3    2   12   12
 -1.158325087733771e-07    3    2   13    1
 0.2293175356493971    3    2   13    2
 0.01232636313218114    3    2   13    3
 -0.04917605402193926    3    2   13    4
 0.01470131546934292    3    2   13    5
 2.43896735051071e-08    3    2   13    6
 -3.014085343248382e-07    3    2   13    7
 -1.510805518379763e-07    3    2   13    8
 2.071851215746717e-08    3    2   13    9
 3.890383378492991e-08    3    2   13   10
 -2.065900702998538e-08    3    2   13   11
 0.2313171521529721    3    2   13   12
 0.005473000127353044    3    2   13   13
 1.995117669035964e-08    3    2   14    1
 -0.03871261819244334    3    2   14    2
 0.04917574702325497    3    2   14    3
 0.0327329512793488    3    2   14    4
 0.004635965630763491    3    2   14    5
 8.96482615975591e-08    3    2   14    6
 7.097096386530142e-08    3    2   14    7
 2.487760278528538e-08    3    2   14    8
 -6.735232810175462e-08    3    2   14    9
 2.302768483104691e-08    3    2   14   10
 -3.436018692433352e-08    3    2   14   11
 -0.02237505122319968    3    2   14   12
 0.03788867240210081    3    2   14   13
 -0.02201908419701078    3    2   14   14
 2.671971370554003e-08    3    2   15    1
 -0.0190014697229904    3    2   15    2
 -0.01470125038408054    3    2   15    3
 0.004636009150345279    3    2   15    4
 -0.006834767548871988    3    2   15    5
 -6.561149456745237e-08    3    2   15    6
 4.395922285317136e-08    3    2   15    7
 2.405256865689591e-08    3    2   15    8
 7.222555309008117e-08    3    2   15    9
 -5.998695454496338e-08    3    2   15   10
 3.51113155866742e-08    3    2   15   11
 -0.03241851452313794    3    2   15   12
 -0.03099065714611238    3    2   15   13
 -0.004727466783017263    3    2   15   14
 0.01336083209292853    3    2   15   15
 4.820234459559433e-08    3    2   16    1
 7.032705523413501e-08    3    2   16    2
 1.171249627349941e-07    3    2   16    3
 -1.405474631370447e-08    3    2   16    4
 5.414904554839726e-08    3    2   16    5
 -0.1168647552774698    3    2   16    6
 0.003904283159155917    3    2   16    7
 -0.051831517520406    3    2   16    8
 0.1995279480009765    3    2   16    9
 0.004160859422513381    3    2   16   10
 0.04051442632907491    3    2   16   11
 1.154334512078381e-07    3    2   16   12
 1.8879968280632e-07    3    2   16   13
 -1.548874747789238e-08    3    2   16   14
 9.927355136843343e-09    3    2   16   15
 -2.077540933995294e-08    3    2   16   16
 0.250000122065112    3    3    1    1
 -8.466513207356915e-08    3    3    2    1
 0.2313173413852184    3    3    2    2
 1.098001407372701e-07    3    3    3    1
 0.00547492037335442    3    3    3    2
 0.5129228281614434    3    3    3    3
 -5.579894144168802e-08    3    3    4    1
 -0.03788876839943379    3    3    4    2
 -0.006246728171553351    3    3    4    3
 0.1027456564421773    3    3    4    4
 4.136080712868639e-08    3    3    5    1
 0.0309909618114384    3    3    5    2
 -0.04725475274501943    3    3    5    3
 0.1036770717484053    3    3    5    4
 0.1530143722991097    3    3    5    5
 0.1152199246854557    3    3    6    1
 -5.126014761646905e-08    3    3    6    2
 -3.076075025611544e-08    3    3    6    3
 -9.179349376796596e-08    3    3    6    4
 -9.16013892752153e-09    3    3    6    5
 0.362008405498037    3    3    6    6
 0.1260856545638661    3    3    7    1
 -2.279046136992269e-07    3    3    7    2