 &FCI NORB=  16,NELEC=16,MS2=0,
  ORBSYM=1,1,1,1,1,1,1,1,1,1,1,1,1,1,1,1,
  ISYM=1,
 &END
 1.169853303964226    1    1    1    1
 0.006149702470538587    1    1    2    1
 0.003077553409464653    1    1    2    2
 0.01574412569867144    1    1    3    1
 5.197694857731518e-05    1    1    3    2
 0.1609269188187277    1    1    3    3
 -0.03260597074752803    1    1    4    1
 -0.006302468375086826    1    1    4    2
 -0.05201387035457459    1    1    4    3
 0.1689169730361751    1    1    4    4
 -0.03891884097064035    1    1    5    1
 0.002751031953003481    1    1    5    2
 -0.05391418608359817    1    1    5    3
 -0.06925361179372608    1    1    5    4
 0.1019668044808902    1    1    5    5
 0.01209929416666285    1    1    6    1
 0.002005113525853798    1    1    6    2
 0.01193221403728949    1    1    6    3
 -0.1134055228197382    1    1    6    4
 0.06668342823843845    1    1    6    5
 0.1284269224996413    1    1    6    6
 0.01294468262631973    1    1    7    1
 -0.002102035920143496    1    1    7    2
 -0.03273498246060136    1    1    7    3
 -0.01170787307108844    1    1    7    4
 0.03276742891087703    1    1    7    5
 -0.03359805014975763    1    1    7    6
 0.1560153770491609    1    1    7    7
 -0.03738111891424976    1    1    8    1
 -0.007827409648234999    1    1    8    2
 -0.0550939376950839    1    1    8    3
 0.06884837897038029    1    1    8    4
 -0.006538905033532177    1    1    8    5
 0.006999633425225789    1    1    8    6
 -0.06354678217788447    1    1    8    7
 0.1108154935705738    1    1    8    8
 0.06925918290650133    1    1    9    1
 0.004064622385420142    1    1    9    2
 -0.03282938986913875    1    1    9    3
 0.001384256202580816    1    1    9    4
 0.008638063173755126    1    1    9    5
 0.004141361969736423    1    1    9    6
 -0.02514129103363874    1    1    9    7
 0.004888309730442879    1    1    9    8
 0.02855876553014849    1    1    9    9
 -0.0128977968262623    1    1   10    1
 0.0003906265963812964    1    1   10    2
 0.01649779197620197    1    1   10    3
 -0.0212276115642053    1    1   10    4
 0.005528656812197462    1    1   10    5
 0.0105594337663687    1    1   10    6
 0.01647400628496893    1    1   10    7
 -0.02499656032839203    1    1   10    8
 -0.005501659636926632    1    1   10    9
 0.01439302664639288    1    1   10   10
 -0.2447561276283358    1    1   11    1
 0.007433156511474545    1    1   11    2
 0.00964145167263202    1    1   11    3
 -0.004613954665403267    1    1   11    4
 0.005466165401970018    1    1   11    5
 -0.03285947884916551    1    1   11    6
 -0.01087920184906118    1    1   11    7
 -0.06227184563329304    1    1   11    8
 0.002350940339574405    1    1   11    9
 0.02086804688715463    1    1   11   10
 0.2496240430131013    1    1   11   11
 0.3870158065478969    1    1   12    1
 0.0117805569873663    1    1   12    2
 0.03429593614089749    1    1   12    3
 -0.2979422441639044    1    1   12    4
 0.1509289576591136    1    1   12    5
 0.2621961451168628    1    1   12    6
 0.0293001173884802    1    1   12    7
 -0.05423732551562305    1    1   12    8
 0.01641213686725576    1    1   12    9
 0.01679515919677119    1    1   12   10
 -0.2306142573478673    1    1   12   11
 0.8482618657987018    1    1   12   12
 -0.3603509856421547    1    1   13    1
 0.0009128786827654082    1    1   13    2
 -0.1296780887612761    1    1   13    3
 0.03820234196175606    1    1   13    4
 0.1027247331263692    1    1   13    5
 -0.02092597078647244    1    1   13    6
 0.0247081261715312    1    1   13    7
 0.01683360404863051    1    1   13    8
 0.01322040781434475    1    1   13    9
 0.0002716745912795991    1    1   13   10
 0.171086891205201    1    1   13   11
 -0.1982974014369371    1    1   13   12
 0.3873168351355631    1    1   13   13
 -0.02633158909688314    1    1   14    1
 0.00147705994502606    1    1   14    2
 -0.006640536867467819    1    1   14    3
 -0.03855322761111635    1    1   14    4
 0.01607588210465184    1    1   14    5
 0.02425707682694349    1    1   14    6
 0.004655415666388867    1    1   14    7
 -0.01267888402648651    1    1   14    8
 0.002646067344042938    1    1   14    9
 0.003613966717550539    1    1   14   10
 0.01235398465864156    1    1   14   11
 0.05270637348969352    1    1   14   12
 0.01050515752061262    1    1   14   13
 0.01719245742932957    1    1   14   14
 -0.1172938540038603    1    1   15    1
 -0.001639455777020189    1    1   15    2
 0.01043474025104772    1    1   15    3
 -0.01860666961005381    1    1   15    4
 0.006457550549499959    1    1   15    5
 0.01084657427991203    1    1   15    6
 0.02807894443390161    1    1   15    7
 -0.01075671842480826    1    1   15    8
 -0.0217267513594119    1    1   15    9
 0.01070805222610664    1    1   15   10
 0.02268062867248075    1    1   15   11
 -0.001076513868834575    1    1   15   12
 0.01952617132177995    1    1   15   13
 0.009806054272995669    1    1   15   14
 0.03584119784849128    1    1   15   15
 -0.3724516905491492    1    1   16    1
 -0.004180365997859253    1    1   16    2
 -0.0177772135444451    1    1   16    3
 0.02988408527987402    1    1   16    4
 0.01403322105110528    1    1   16    5
 0.03676319828713413    1    1   16    6
 -0.1343810645245829    1    1   16    7
 0.1020841037753864    1    1   16    8
 -0.0109190326450697    1    1   16    9
 -0.01490589945816962    1    1   16   10
 0.1747289527818943    1    1   16   11
 -0.2134822811595467    1    1   16   12
 0.1772826459728558    1    1   16   13
 0.005997326073099164    1    1   16   14
 0.02560804286153056    1    1   16   15
 0.4188124617694234    1    1   16   16
 0.006149702470538526    2    1    1    1
 0.00307755340946462    2    1    2    1
 0.01980193847947994    2    1    2    2
 5.197694857731907e-05    2    1    3    1
 -0.003558529033792257    2    1    3    2
 -0.008230923610189499    2    1    3    3
 -0.006302468375086825    2    1    4    1
 -0.002032521500158563    2    1    4    2
 -0.005946508247254612    2    1    4    3
 -0.01221784042385904    2    1    4    4
 0.00275103195300348    2    1    5    1
 0.007580923623534622    2    1    5    2
 -0.005256034981780126    2    1    5    3
 0.005382932789641405    2    1    5    4
 0.008920495428913735    2    1    5    5
 0.002005113525853753    2    1    6    1
 0.002433026755522    2    1    6    2
 0.002224959070145277    2    1    6    3
 0.00235293490541296    2    1    6    4
 -0.008436216395462428    2    1    6    5
 -0.005289956423261634    2    1    6    6
 -0.002102035920143483    2    1    7    1
 -0.007034187594298538    2    1    7    2
 -0.001071239881229049    2    1    7    3
 -0.001071964287206365    2    1    7    4
 -0.005250139868741164    2    1    7    5
 0.006726096372177338    2    1    7    6
 -0.01714058457289667    2    1    7    7
 -0.007827409648234982    2    1    8    1
 -0.004241212830423439    2    1    8    2
 -0.009293250064258912    2    1    8    3
 0.00541061560511148    2    1    8    4
 -0.0003541287655353981    2    1    8    5
 -0.008411014690469823    2    1    8    6
 -0.004551327505457092    2    1    8    7
 0.008007175817033738    2    1    8    8
 0.004064622385420142    2    1    9    1
 -0.02121144458376701    2    1    9    2
 0.002781548501323997    2    1    9    3
 0.000191206955178337    2    1    9    4
 0.004164944008170106    2    1    9    5
 -0.0006363763536619631    2    1    9    6
 0.007311247948653372    2    1    9    7
 -0.0009046571921681163    2    1    9    8
 -0.006392906730344612    2    1    9    9
 0.0003906265963813146    2    1   10    1
 0.001375221666518089    2    1   10    2
 -0.000394577841592411    2    1   10    3
 -0.01085329162678491    2    1   10    4
 -0.0003989611539666603    2    1   10    5
 -0.02222501701993738    2    1   10    6
 -0.002743358240000199    2    1   10    7
 0.001033237717044808    2    1   10    8
 -0.006908588513889273    2    1   10    9
 0.007306390568284649    2    1   10   10
 0.007433156511474505    2    1   11    1
 -0.00294562671475036    2    1   11    2
 0.01662596946987122    2    1   11    3
 -0.01576794650463529    2    1   11    4
 0.00351287921121918    2    1   11    5
 -0.002708607483378894    2    1   11    6
 0.0008933842486472108    2    1   11    7
 -0.01006609488343956    2    1   11    8
 -0.000780335619009695    2    1   11    9
 0.001482120741890997    2    1   11   10
 0.01264172838638112    2    1   11   11
 0.01178055698736626    2    1   12    1
 -0.005765118112138461    2    1   12    2
 -0.001077259481018785    2    1   12    3
 -0.00510792777061    2    1   12    4
 -0.0009182838839267877    2    1   12    5
 0.0006565681722397628    2    1   12    6
 -0.0004377470240159074    2    1   12    7
 0.005683234106915261    2    1   12    8
 0.0009383789232219187    2    1   12    9
 0.003746813675007767    2    1   12   10
 -0.008398936604549032    2    1   12   11
 -0.01141945481931748    2    1   12   12
 0.0009128786827653826    2    1   13    1
 -0.0002545993107526811    2    1   13    2
 -0.01695855688099766    2    1   13    3
 0.0008587843886879242    2    1   13    4
 -0.002297807354609787    2    1   13    5
 0.0004743421078908411    2    1   13    6
 0.009344757192442982    2    1   13    7
 -0.00119223100749452    2    1   13    8
 0.002317536162690182    2    1   13    9
 0.0001521727953419578    2    1   13   10
 0.009570801348620183    2    1   13   11
 -0.003299335931783217    2    1   13   12
 -0.001541559890932082    2    1   13   13
 0.001477059945026069    2    1   14    1
 0.008327682607844467    2    1   14    2
 0.005042090463600767    2    1   14    3
 0.01495448093205014    2    1   14    4
 -0.001738660328264153    2    1   14    5
 0.001878870472790146    2    1   14    6
 -0.000445029500222541    2    1   14    7
 -0.003150918677900388    2    1   14    8
 -0.0106086203208017    2    1   14    9
 0.006440021817713513    2    1   14   10
 0.004360867271741346    2    1   14   11
 0.005223717991361566    2    1   14   12
 0.003968369087811977    2    1   14   13
 -0.002579314538042306    2    1   14   14
 -0.001639455777020173    2    1   15    1
 0.003322550965264309    2    1   15    2
 0.003113003189225388    2    1   15    3
 0.0008991911597757948    2    1   15    4
 0.007901548502406019    2    1   15    5
 -0.01409532126958368    2    1   15    6
 -0.01467537210421081    2    1   15    7
 -0.004219953719790573    2    1   15    8
 0.01158702250998559    2    1   15    9
 -0.01257400691664056    2    1   15   10
 0.001389008590978605    2    1   15   11
 0.001804210632588756    2    1   15   12
 -4.755626854274099e-05    2    1   15   13
 -0.006391576208821547    2    1   15   14
 0.01209858275488117    2    1   15   15
 -0.004180365997859306    2    1   16    1
 -0.001015676680185518    2    1   16    2
 0.002433429732426551    2    1   16    3
 -0.0009883301996154985    2    1   16    4
 -0.002618913359743425    2    1   16    5
 0.004332839554207372    2    1   16    6
 -0.01283955098667587    2    1   16    7
 -0.003824427853551836    2    1   16    8
 0.005396054290634921    2    1   16    9
 0.004323012025422164    2    1   16   10
 0.005255545529032487    2    1   16   11
 -0.006790176189938445    2    1   16   12
 0.004956704177496335    2    1   16   13
 0.0002984415206155722    2    1   16   14
 -0.004546002279860522    2    1   16   15
 -0.01011347289666955    2    1   16   16
 0.003077553409464645    2    2    1    1
 0.01980193847948002    2    2    2    1
 1.163794197556715    2    2    2    2
 -0.003558529033792283    2    2    3    1
 -0.01925880923370503    2    2    3    2
 0.1263424066267674    2    2    3    3
 -0.002032521500158559    2    2    4    1
 0.007171960680299998    2    2    4    2
 0.03582729113011793    2    2    4    3
 0.1597910882364016    2    2    4    4
 0.007580923623534637    2    2    5    1
 0.05489170793365181    2    2    5    2
 0.00419068483234924    2    2    5    3
 0.06099551009045649    2    2    5    4
 0.1138000121913789    2    2    5    5
 0.00243302675552198    2    2    6    1
 -0.01079338857701709    2    2    6    2
 0.01060263731035242    2    2    6    3
 0.03525802420348483    2    2    6    4
 -0.05567846960548809    2    2    6    5
 0.1692757114326371    2    2    6    6
 -0.007034187594298545    2    2    7    1
 -0.02619171021576255    2    2    7    2
 0.1089735115366304    2    2    7    3
 -0.008404307800177832    2    2    7    4
 -0.0701913271432526    2    2    7    5
 0.04788026370377834    2    2    7    6
 0.1625278915026713    2    2    7    7
 -0.004241212830423442    2    2    8    1
 0.0545486939876813    2    2    8    2
 0.06254526621411395    2    2    8    3
 -0.03558360618472768    2    2    8    4
 -0.009736249764676729    2    2    8    5
 -0.05623013935809065    2    2    8    6
 0.06848764862532047    2    2    8    7
 0.1013909179064536    2    2    8    8
 -0.02121144458376703    2    2    9    1
 -0.3981524374278265    2    2    9    2
 0.2565114164456976    2    2    9    3
 -0.02566557309340598    2    2    9    4
 -0.07338623471939816    2    2    9    5
 0.03204355197838044    2    2    9    6
 0.2860557615523726    2    2    9    7
 0.1426879332734328    2    2    9    8
 0.838661278058537    2    2    9    9
 0.00137522166651805    2    2   10    1
 0.3525676117220579    2    2   10    2
 -0.02358589722468575    2    2   10    3
 -0.02614340174408326    2    2   10    4
 0.02526729538412291    2    2   10    5
 -0.1377524380689213    2    2   10    6
 -0.0362139568932991    2    2   10    7
 0.1129171920242387    2    2   10    8
 -0.2007229880827375    2    2   10    9
 0.3974177696660275    2    2   10   10
 -0.002945626714750359    2    2   11    1
 -0.1157547522675924    2    2   11    2
 -0.009968302772433551    2    2   11    3
 0.03170435993126079    2    2   11    4
 0.008825060565721134    2    2   11    5
 -0.0103810891776689    2    2   11    6
 -0.01831715495585534    2    2   11    7
 -0.01211882633973717    2    2   11    8
 0.003450773315557179    2    2   11    9
 -0.01603877607126382    2    2   11   10
 0.03594810373460459    2    2   11   11
 -0.005765118112138464    2    2   12    1
 -0.06877538680823546    2    2   12    2
 0.00445810559167841    2    2   12    3
 0.02853682606471119    2    2   12    4
 0.00321364499805123    2    2   12    5
 -0.03481319653680765    2    2   12    6
 -0.001296827166152624    2    2   12    7
 0.005990465637684381    2    2   12    8
 0.01706381749005146    2    2   12    9
 0.0156350268491904    2    2   12   10
 0.02310587801187221    2    2   12   11
 0.03065740551792927    2    2   12   12
 -0.0002545993107526744    2    2   13    1
 0.01272835778878225    2    2   13    2
 0.0108071752708863    2    2   13    3
 -0.0170125030037711    2    2   13    4
 -0.0252469880855673    2    2   13    5
 0.01591594067418379    2    2   13    6
 0.01864323276909932    2    2   13    7
 0.00634387521622658    2    2   13    8
 0.01643271698909573    2    2   13    9
 -0.0002715383502281823    2    2   13   10
 -0.01110184216232676    2    2   13   11
 -0.005594964739811103    2    2   13   12
 0.01410157705637693    2    2   13   13
 0.008327682607844457    2    2   14    1
 0.3717935077086928    2    2   14    2
 0.03686816317655118    2    2   14    3
 0.1263436988071495    2    2   14    4
 0.1078000671198035    2    2   14    5
 -0.01724188181386394    2    2   14    6
 -0.02448213151823539    2    2   14    7
 0.01724400756836931    2    2   14    8
 -0.215749750729792    2    2   14    9
 0.1747189192364549    2    2   14   10
 -0.02747911482315934    2    2   14   11
 -0.01334969696516138    2    2   14   12
 -0.01485946203411925    2    2   14   13
 0.419402420445657    2    2   14   14
 0.003322550965264302    2    2   15    1
 -0.2469566470317626    2    2   15    2
 0.03491354799256167    2    2   15    3
 -0.007890836819671912    2    2   15    4
 0.05500163316298688    2    2   15    5
 -0.004297293451289948    2    2   15    6
 -0.001591352042660685    2    2   15    7
 -0.01060880452665506    2    2   15    8
 0.2295367039772808    2    2   15    9
 -0.1717681033115281    2    2   15   10
 0.02248631222155436    2    2   15   11
 -0.002995397777440534    2    2   15   12
 -0.02029469801053322    2    2   15   13
 -0.1735005407145097    2    2   15   14
 0.2462792879473271    2    2   15   15
 -0.001015676680185519    2    2   16    1
 0.02502345101370062    2    2   16    2
 0.02325683869395688    2    2   16    3
 -0.00533830326002293    2    2   16    4
 -0.01324684765402862    2    2   16    5
 -0.008020348457852999    2    2   16    6
 0.03938644329456326    2    2   16    7
 0.01796054854244898    2    2   16    8
 0.04997415148329622    2    2   16    9
 0.0092428886179458    2    2   16   10
 -0.008395051670258433    2    2   16   11
 0.003258628626218861    2    2   16   12
 0.002845840798855392    2    2   16   13
 0.005694258553504848    2    2   16   14
 -0.01157779293149608    2    2   16   15
 0.01753237871105689    2    2   16   16
 0.01574412569867142    3    1    1    1
 5.197694857733079e-05    3    1    2    1
 -0.003558529033792242    3    1    2    2
 0.1609269188187276    3    1    3    1
 -0.008230923610189487    3    1    3    2
 0.02543654420140261    3    1    3    3
 -0.0520138703545746    3    1    4    1
 -0.00594650824725459    3    1    4    2
 -0.003844809283980873    3    1    4    3
 0.03800918547538651    3    1    4    4
 -0.05391418608359817    3    1    5    1
 -0.005256034981780134    3    1    5    2
 0.1283977734072426    3    1    5    3
 -0.003357516980993445    3    1    5    4
 -0.0628542678163144    3    1    5    5
 0.01193221403728945    3    1    6    1
 0.002224959070145286    3    1    6    2
 -0.01162728033021267    3    1    6    3
 0.0004019702839477298    3    1    6    4
 0.002109391149564706    3    1    6    5
 -0.00682225275697181    3    1    6    6
 -0.03273498246060136    3    1    7    1
 -0.001071239881229066    3    1    7    2
 0.07498427818562546    3    1    7    3
 -0.006956668989999125    3    1    7    4
 -0.04453454042221022    3    1    7    5
 0.01071774052276231    3    1    7    6
 -0.07458449746990491    3    1    7    7
 -0.05509393769508388    3    1    8    1
 -0.009293250064258931    3    1    8    2
 -0.04238954293150707    3    1    8    3
 0.05434994457710805    3    1    8    4
 0.00465200537786749    3    1    8    5
 -0.00848468504663063    3    1    8    6
 0.004432208961634537    3    1    8    7
 0.06862963591537606    3    1    8    8
 -0.03282938986913873    3    1    9    1
 0.002781548501324014    3    1    9    2
 -0.02932940201350259    3    1    9    3
 -0.01577122127117322    3    1    9    4
 -0.03951092406787435    3    1    9    5
 0.004172986566246094    3    1    9    6
 -0.006664060806104618    3    1    9    7
 -0.01096120556216329    3    1    9    8
 0.006277826060645066    3    1    9    9
 0.01649779197620195    3    1   10    1
 -0.0003945778415924023    3    1   10    2
 0.01289681927476649    3    1   10    3
 -0.01223050638286509    3    1   10    4
 0.002581497657434491    3    1   10    5
 -0.002187338404583813    3    1   10    6
 -0.002178339550081089    3    1   10    7
 -0.01822878824383349    3    1   10    8
 0.001276050744542747    3    1   10    9
 0.003593327550697147    3    1   10   10
 0.009641451672632011    3    1   11    1
 0.01662596946987123    3    1   11    2
 0.05677900444341912    3    1   11    3
 -0.08812806243760697    3    1   11    4
 -0.04290806472884288    3    1   11    5
 0.004491832187190411    3    1   11    6
 -0.01738308209851735    3    1   11    7
 -0.1186415843747577    3    1   11    8
 0.02406728113337409    3    1   11    9
 0.02971779224308525    3    1   11   10
 0.1953853487506714    3    1   11   11
 0.03429593614089747    3    1   12    1
 -0.001077259481018772    3    1   12    2
 6.394943694799841e-05    3    1   12    3
 0.006750730562463628    3    1   12    4
 -0.006099751871905322    3    1   12    5
 0.001894390976138754    3    1   12    6
 0.0008999179377333754    3    1   12    7
 0.01077309919745967    3    1   12    8
 -0.0007385740620988571    3    1   12    9
 -0.001645906017507542    3    1   12   10
 -0.03664573358658217    3    1   12   11
 0.02188788451175896    3    1   12   12
 -0.1296780887612761    3    1   13    1
 -0.01695855688099768    3    1   13    2
 0.31610774167959    3    1   13    3
 -0.007920904402783077    3    1   13    4
 -0.1100381781370522    3    1   13    5
 0.005496219982965663    3    1   13    6
 -0.07935960944971544    3    1   13    7
 0.00300577414034962    3    1   13    8
 -0.1102056300881435    3    1   13    9
 0.01132069867459151    3    1   13   10
 -0.07673063889847082    3    1   13   11
 -0.03407118634708978    3    1   13   12
 -0.2030918646861017    3    1   13   13
 -0.00664053686746782    3    1   14    1
 0.005042090463600773    3    1   14    2
 -0.03966554190755169    3    1   14    3
 -0.01682887009103909    3    1   14    4
 -0.01498317744990022    3    1   14    5
 0.002398949805746918    3    1   14    6
 -0.005541740182260679    3    1   14    7
 -0.01476054979201099    3    1   14    8
 0.02368733407781693    3    1   14    9
 -0.0001792516896013275    3    1   14   10
 0.03625811002426835    3    1   14   11
 -0.004329547140702799    3    1   14   12
 -0.04705674407010005    3    1   14   13
 0.01748841805138108    3    1   14   14
 0.01043474025104772    3    1   15    1
 0.003113003189225387    3    1   15    2
 -0.01506893478220211    3    1   15    3
 0.001411715048515719    3    1   15    4
 0.01500374204208326    3    1   15    5
 -0.001911307669265352    3    1   15    6
 -0.007142525908341756    3    1   15    7
 -0.002896100947589855    3    1   15    8
 0.01191520056545363    3    1   15    9
 -0.002222426105554687    3    1   15   10
 0.01076027733758205    3    1   15   11
 -0.003582461282318032    3    1   15   12
 0.03434258027503471    3    1   15   13
 -0.0009202298237528479    3    1   15   14
 -0.01314188863059371    3    1   15   15
 -0.01777721354444508    3    1   16    1
 0.002433429732426538    3    1   16    2
 0.00825467875351798    3    1   16    3
 -0.00808212630967073    3    1   16    4
 0.01095757595517478    3    1   16    5
 -0.01392835395422088    3    1   16    6
 0.01174049842136916    3    1   16    7
 -0.0368564221693863    3    1   16    8
 0.004949526003245816    3    1   16    9
 0.008077532242732416    3    1   16   10
 0.04062247553072403    3    1   16   11
 -0.02657830326596534    3    1   16   12
 0.05295956761713704    3    1   16   13
 0.0001784503279064905    3    1   16   14
 -0.003416220247042755    3    1   16   15
 -0.02839899582230974    3    1   16   16
 5.197694857729733e-05    3    2    1    1
 -0.003558529033792243    3    2    2    1
 -0.01925880923370498    3    2    2    2
 -0.008230923610189468    3    2    3    1
 0.1263424066267674    3    2    3    2
 -0.04068740203550988    3    2    3    3
 -0.005946508247254601    3    2    4    1
 0.03582729113011792    3    2    4    2
 -0.04815833791195623    3    2    4    3
 -0.06522947384157185    3    2    4    4
 -0.00525603498178014    3    2    5    1
 0.004190684832349227    3    2    5    2
 -0.0419773295849078    3    2    5    3
 -0.04531215354307292    3    2    5    4
 -0.0348034853187212    3    2    5    5
 0.002224959070145279    3    2    6    1
 0.01060263731035247    3    2    6    2
 0.006618384204304839    3    2    6    3
 0.01045074326045457    3    2    6    4
 0.006393822484519934    3    2    6    5
 0.01438082936566202    3    2    6    6
 -0.001071239881229069    3    2    7    1
 0.1089735115366304    3    2    7    2
 0.06089017757719362    3    2    7    3
 0.000546031987739974    3    2    7    4
 -0.008283470332802127    3    2    7    5
 0.0006550361868362184    3    2    7    6
 0.08089842249690653    3    2    7    7
 -0.009293250064258905    3    2    8    1
 0.06254526621411395    3    2    8    2
 0.03217241646363227    3    2    8    3
 0.002870610659083373    3    2    8    4
 -0.007830973946028951    3    2    8    5
 -0.003614127320646289    3    2    8    6
 0.05392326229444195    3    2    8    7
 0.06464804278758429    3    2    8    8
 0.00278154850132403    3    2    9    1
 0.2565114164456976    3    2    9    2
 0.1513914055205191    3    2    9    3
 -0.003129339422214778    3    2    9    4
 -0.009341532496078473    3    2    9    5
 -0.003955139844685045    3    2    9    6
 0.1156034271624075    3    2    9    7
 0.09792450847296623    3    2    9    8
 0.1800078455356061    3    2    9    9
 -0.0003945778415923871    3    2   10    1
 -0.02358589722468571    3    2   10    2
 0.02954918540812472    3    2   10    3
 -0.01253487149728619    3    2   10    4
 -0.008714952218428581    3    2   10    5
 -0.006413091920643691    3    2   10    6
 0.03488458028530368    3    2   10    7
 0.02158594044425871    3    2   10    8
 0.09278502157124395    3    2   10    9
 0.01345235128287821    3    2   10   10
 0.01662596946987123    3    2   11    1
 -0.009968302772433548    3    2   11    2
 0.03176529091730924    3    2   11    3
 -0.0223740482470351    3    2   11    4
 0.002049994138265566    3    2   11    5
 -0.002016510609451828    3    2   11    6
 -0.01776237552941503    3    2   11    7
 -0.01620110582156648    3    2   11    8
 -0.06440621128271226    3    2   11    9
 -0.001406519470273158    3    2   11   10
 0.01162412147793216    3    2   11   11
 -0.001077259481018791    3    2   12    1
 0.004458105591678416    3    2   12    2
 -0.01137538980586672    3    2   12    3
 -0.01423379158081113    3    2   12    4
 -0.006669040194029146    3    2   12    5
 -0.004669154205034641    3    2   12    6
 -0.005714318593666412    3    2   12    7
 0.0008643021004817222    3    2   12    8
 -0.01446172224786945    3    2   12    9
 -3.003204994989877e-05    3    2   12   10
 -0.004880146560920689    3    2   12   11
 -0.0005124873769669475    3    2   12   12
 -0.01695855688099763    3    2   13    1
 0.01080717527088621    3    2   13    2
 -0.04114776732317282    3    2   13    3
 -0.0004529638313538891    3    2   13    4
 -0.01325640618506904    3    2   13    5
 0.002202058114624548    3    2   13    6
 -0.003870564771916847    3    2   13    7
 -0.00361926352877898    3    2   13    8
 0.0451884916095758    3    2   13    9
 0.001916870509086892    3    2   13   10
 0.0295516162187026    3    2   13   11
 0.0007758078374631808    3    2   13   12
 -0.05557279423163743    3    2   13   13
 0.005042090463600777    3    2   14    1
 0.03686816317655121    3    2   14    2
 0.02525466193266205    3    2   14    3
 -0.08793505941408029    3    2   14    4
 -0.06117072970987594    3    2   14    5
 0.01395878194390857    3    2   14    6
 0.04083166504355655    3    2   14    7
 0.0235992225503707    3    2   14    8
 0.06403680363197578    3    2   14    9
 -0.01327346284777071    3    2   14   10
 -0.03398394775097365    3    2   14   11
 -0.01636059657733868    3    2   14   12
 0.04027052699092273    3    2   14   13
 -0.1541480884816231    3    2   14   14
 0.003113003189225401    3    2   15    1
 0.0349135479925617    3    2   15    2
 -0.007126887101218271    3    2   15    3
 0.006980631971556896    3    2   15    4
 0.007697137007700685    3    2   15    5
 0.002705012270450269    3    2   15    6
 -0.0009614114305323984    3    2   15    7
 -0.002254306367118294    3    2   15    8
 -0.03413513300790206    3    2   15    9
 0.01614714049552257    3    2   15   10
 -0.0009279461218880275    3    2   15   11
 -0.002973504476808817    3    2   15   12
 -0.002875413002907658    3    2   15   13
 0.02499082024647224    3    2   15   14
 -0.0102218426521332    3    2   15   15
 0.002433429732426539    3    2   16    1
 0.02325683869395688    3    2   16    2
 0.01149072351465021    3    2   16    3
 -0.0009755134797746905    3    2   16    4
 -0.001736694396157318    3    2   16    5
 -0.001980443980585962    3    2   16    6
 0.02750671924073159    3    2   16    7
 0.00576939940963419    3    2   16    8
 0.03475774402305009    3    2   16    9
 0.01076023044318152    3    2   16   10
 -0.001028107853957818    3    2   16   11
 -0.001297565696601459    3    2   16   12
 -0.003821697326687685    3    2   16   13
 0.01161678201245699    3    2   16   14
 0.002986272767678529    3    2   16   15
 0.01537079327672083    3    2   16   16
 0.1609269188187277    3    3    1    1
 -0.00823092361018949    3    3    2    1
 0.1263424066267675    3    3    2    2
 0.02543654420140271    3    3    3    1
 -0.04068740203550986    3    3    3    2
 1.14621439612414    3    3    3    3
 -0.003844809283980868    3    3    4    1
 -0.04815833791195621    3    3    4    2
 0.05456664670382575    3    3    4    3
 0.1143045140923422    3    3    4    4
 0.1283977734072426    3    3    5    1
 -0.0419773295849078    3    3    5    2
 0.01738196409481999    3    3    5    3
 0.07356409373704383    3    3    5    4
 0.1627267625840417    3    3    5    5
 -0.01162728033021267    3    3    6    1
 0.006618384204304853    3    3    6    2
 -0.01225368602983403    3    3    6    3
 -0.01178774816019148    3    3    6    4
 -0.01844683492794001    3    3    6    5
 0.005370419442740385    3    3    6    6
 0.07498427818562546    3    3    7    1
 0.06089017757719366    3    3    7    2
 -0.03646205341003108    3    3    7    3
 0.01122743004404665    3    3    7    4
 0.06930748390925379    3    3    7    5
 -0.00682916750180955    3    3    7    6
 0.12227378923809    3    3    7    7
 -0.0423895429315071    3    3    8    1
 0.03217241646363228    3    3    8    2
 0.03839515842734674    3    3    8    3
 0.07370328959074067    3    3    8    4
 0.01414304438667392    3    3    8    5
 -0.003244491154359213    3    3    8    6
 0.04236052180069853    3    3    8    7
 0.1618400480036938    3    3    8    8