 &FCI NORB= 32,NELEC= 32,MS2= 0,
  ORBSYM=1,1,1,1,1,1,1,1,1,1,1,1,1,1,1,1,1,1,1,1,1,1,1,1,1,1,1,1,1,1,1,1,
  ISYM=1,
 &END
  4.0000000000000000   1   1   1   1
  4.0000000000000000   2   2   2   2
  4.0000000000000000   3   3   3   3
  4.0000000000000000   4   4   4   4
  4.0000000000000000   5   5   5   5
  4.0000000000000000   6   6   6   6
  4.0000000000000000   7   7   7   7
  4.0000000000000000   8   8   8   8
  4.0000000000000000   9   9   9   9
  4.0000000000000000  10  10  10  10
  4.0000000000000000  11  11  11  11
  4.0000000000000000  12  12  12  12
  4.0000000000000000  13  13  13  13
  4.0000000000000000  14  14  14  14
  4.0000000000000000  15  15  15  15
  4.0000000000000000  16  16  16  16
 -2.0000000000000000   1   1   0   0
 -1.0000000000000000   2   1   0   0
 -2.0000000000000000   2   2   0   0
 -1.0000000000000000   3   2   0   0
 -2.0000000000000000   3   3   0   0
 -1.0000000000000000   4   3   0   0
 -2.0000000000000000   4   4   0   0
 -1.0000000000000000   5   1   0   0
 -2.0000000000000000   5   5   0   0
 -1.0000000000000000   6   2   0   0
 -1.0000000000000000   6   5   0   0
 -2.0000000000000000   6   6   0   0
 -1.0000000000000000   7   3   0   0
 -1.0000000000000000   7   6   0   0
 -2.0000000000000000   7   7   0   0
 -1.0000000000000000   8   4   0   0
 -1.0000000000000000   8   7   0   0
 -2.0000000000000000   8   8   0   0
 -1.0000000000000000   9   5   0   0
 -2.0000000000000000   9   9   0   0
 -1.0000000000000000  10   6   0   0
 -1.0000000000000000  10   9   0   0
 -2.0000000000000000  10  10   0   0
 -1.0000000000000000  11   7   0   0
 -1.0000000000000000  11  10   0   0
 -2.0000000000000000  11  11   0   0
 -1.0000000000000000  12   8   0   0
 -1.0000000000000000  12  11   0   0
 -2.0000000000000000  12  12   0   0
 -1.0000000000000000  13   9   0   0
 -2.0000000000000000  13  13   0   0
 -1.0000000000000000  14  10   0   0
 -1.0000000000000000  14  13   0   0
 -2.0000000000000000  14  14   0   0
 -1.0000000000000000  15  11   0   0
 -1.0000000000000000  15  14   0   0
 -2.0000000000000000  15  15   0   0
 -1.0000000000000000  16  12   0   0
 -1.0000000000000000  16  15   0   0
 -2.0000000000000000  16  16   0   0
  0.6029863796168468  17   1   0   0
 -0.2811143469950396  17   3   0   0
  0.2811143469950407  17   8   0   0
 -0.2811143469950395  17   9   0   0
  0.2811143469950399  17  14   0   0
 -0.6029863796168466  17  16   0   0
 -0.2811143469950373  18   2   0   0
  0.6029863796168551  18   4   0   0
  0.2811143469950368  18   5   0   0
 -0.2811143469950370  18  12   0   0
 -0.6029863796168533  18  13   0   0
  0.2811143469950365  18  15   0   0
  0.2393079728823161  19   2   0   0
  0.4674148422882445  19   4   0   0
 -0.2393079728823155  19   5   0   0
  0.2393079728823155  19  12   0   0
 -0.4674148422882443  19  13   0   0
 -0.2393079728823153  19  15   0   0
  0.4674148422882525  20   1   0   0
  0.2393079728823119  20   3   0   0
 -0.2393079728823121  20   8   0   0
  0.2393079728823115  20   9   0   0
 -0.2393079728823112  20  14   0   0
 -0.4674148422882535  20  16   0   0
  0.0001601703944746  21   1   0   0
 -0.2843561987820452  21   2   0   0
 -0.0000826874616434  21   3   0   0
  0.5508143994857846  21   4   0   0
 -0.2843561987820440  21   5   0   0
 -0.0000826874616440  21   8   0   0
 -0.0000826874616440  21   9   0   0
 -0.2843561987820430  21  12   0   0
  0.5508143994857850  21  13   0   0
 -0.0000826874616433  21  14   0   0
 -0.2843561987820462  21  15   0   0
  0.0001601703944748  21  16   0   0
 -0.0002017628506284  21  21   0   0
  0.5508143994857853  22   1   0   0
  0.0000826874616430  22   2   0   0
 -0.2843561987820456  22   3   0   0
 -0.0001601703944750  22   4   0   0
  0.0000826874616436  22   5   0   0
 -0.2843561987820444  22   8   0   0
 -0.2843561987820439  22   9   0   0
  0.0000826874616438  22  12   0   0
 -0.0001601703944753  22  13   0   0
 -0.2843561987820446  22  14   0   0
  0.0000826874616433  22  15   0   0
  0.5508143994857839  22  16   0   0
 -0.3469238943146987  22  21   0   0
  0.0002017628506280  22  22   0   0
 -0.2408114502891596  23   2   0   0
  0.2148744982067557  23   3   0   0
  0.2408114502891625  23   5   0   0
 -0.2148744982067571  23   8   0   0
 -0.2148744982067567  23   9   0   0
  0.2408114502891628  23  12   0   0
  0.2148744982067567  23  14   0   0
 -0.2408114502891592  23  15   0   0
 -0.3100320012736832  23  23   0   0
  0.2148744982067562  24   2   0   0
  0.2408114502891598  24   3   0   0
 -0.2148744982067570  24   5   0   0
 -0.2408114502891615  24   8   0   0
 -0.2408114502891618  24   9   0   0
 -0.2148744982067569  24  12   0   0
  0.2408114502891603  24  14   0   0
  0.2148744982067559  24  15   0   0
 -0.0354078124258643  24  23   0   0
  0.3100320012736831  24  24   0   0
 -0.0638817642996089  25   1   0   0
 -0.1010443684499003  25   2   0   0
 -0.0123232302901022  25   3   0   0
 -0.5237987424695874  25   4   0   0
 -0.1010443684498982  25   5   0   0
 -0.0123232302901052  25   8   0   0
 -0.0123232302901045  25   9   0   0
 -0.1010443684498977  25  12   0   0
 -0.5237987424695874  25  13   0   0
 -0.0123232302901017  25  14   0   0
 -0.1010443684499012  25  15   0   0
 -0.0638817642996092  25  16   0   0
 -0.0362681365123361  25  21   0   0
 -0.2966628226191707  25  22   0   0
  0.1104890776954978  25  25   0   0
 -0.5237987424695862  26   1   0   0
  0.0123232302901036  26   2   0   0
 -0.1010443684498998  26   3   0   0
  0.0638817642996091  26   4   0   0
  0.0123232302901030  26   5   0   0
 -0.1010443684498998  26   8   0   0
 -0.1010443684498993  26   9   0   0
  0.0123232302901033  26  12   0   0
  0.0638817642996093  26  13   0   0
 -0.1010443684498998  26  14   0   0
  0.0123232302901035  26  15   0   0
 -0.5237987424695856  26  16   0   0
 -0.2966628226191707  26  21   0   0
  0.0362681365123364  26  22   0   0
  0.4462402362291595  26  25   0   0
 -0.1104890776954977  26  26   0   0
  0.2064344266757134  27   2   0   0
 -0.3322143965468483  27   3   0   0
  0.2064344266757137  27   5   0   0
 -0.3322143965468466  27   8   0   0
  0.3322143965468468  27   9   0   0
 -0.2064344266757139  27  12   0   0
  0.3322143965468472  27  14   0   0
 -0.2064344266757138  27  15   0   0
  0.0506470768362148  27  17   0   0
 -0.0815062116283330  27  18   0   0
  0.1427196733845176  27  19   0   0
 -0.0886844587613264  27  20   0   0
  0.3322143965468458  28   2   0   0
  0.2064344266757146  28   3   0   0
  0.3322143965468479  28   5   0   0
  0.2064344266757138  28   8   0   0
 -0.2064344266757140  28   9   0   0
 -0.3322143965468475  28  12   0   0
 -0.2064344266757138  28  14   0   0
 -0.3322143965468469  28  15   0   0
  0.0815062116283351  28  17   0   0
  0.0506470768362134  28  18   0   0
 -0.0886844587613273  28  19   0   0
 -0.1427196733845166  28  20   0   0
 -0.0069946221785983  29   1   0   0
  0.0604283548656908  29   2   0   0
  0.0142916172163425  29   3   0   0
 -0.0295749252699281  29   4   0   0
 -0.0604283548656866  29   5   0   0
 -0.0142916172163428  29   8   0   0
  0.0142916172163433  29   9   0   0
  0.0604283548656871  29  12   0   0
  0.0295749252699281  29  13   0   0
 -0.0142916172163428  29  14   0   0
 -0.0604283548656906  29  15   0   0
  0.0069946221785981  29  16   0   0
  0.4113900417283530  29  27   0   0
 -0.4137319448417839  29  28   0   0
 -0.0295749252699282  30   1   0   0
 -0.0142916172163425  30   2   0   0
  0.0604283548656877  30   3   0   0
  0.0069946221785983  30   4   0   0
  0.0142916172163431  30   5   0   0
 -0.0604283548656903  30   8   0   0
  0.0604283548656904  30   9   0   0
 -0.0142916172163435  30  12   0   0
 -0.0069946221785985  30  13   0   0
 -0.0604283548656872  30  14   0   0
  0.0142916172163425  30  15   0   0
  0.0295749252699277  30  16   0   0
 -0.4137319448417839  30  27   0   0
 -0.4113900417283533  30  28   0   0
 -0.0131734670132741  31   1   0   0
 -0.1631546347086697  31   2   0   0
  0.0093509941179904  31   3   0   0
  0.2298485242614345  31   4   0   0
 -0.1631546347086698  31   5   0   0
  0.0093509941179928  31   8   0   0
  0.0093509941179929  31   9   0   0
 -0.1631546347086693  31  12   0   0
  0.2298485242614348  31  13   0   0
  0.0093509941179910  31  14   0   0
 -0.1631546347086696  31  15   0   0
 -0.0131734670132740  31  16   0   0
 -0.0156406271512624  31  21   0   0
  0.2742913359950715  31  22   0   0
 -0.0111705251368483  31  25   0   0
 -0.1740060421215942  31  26   0   0
 -0.0717487555609567  31  31   0   0
 -0.2298485242614346  32   1   0   0
  0.0093509941179904  32   2   0   0
  0.1631546347086708  32   3   0   0
 -0.0131734670132743  32   4   0   0
  0.0093509941179909  32   5   0   0
  0.1631546347086705  32   8   0   0
  0.1631546347086689  32   9   0   0
  0.0093509941179911  32  12   0   0
 -0.0131734670132749  32  13   0   0
  0.1631546347086701  32  14   0   0
  0.0093509941179907  32  15   0   0
 -0.2298485242614340  32  16   0   0
 -0.2742913359950720  32  21   0   0
 -0.0156406271512625  32  22   0   0
  0.1740060421215948  32  25   0   0
 -0.0111705251368493  32  26   0   0
 -0.6238742550150227  32  31   0   0
  0.0717487555609552  32  32   0   0
 64.0000000000000000   0   0   0   0
