 &FCI NORB= 16,NELEC= 16,MS2= 0,
  ORBSYM=1,1,1,1,1,1,1,1,1,1,1,1,1,1,1,1,
  ISYM=1,
 &END
  0.0062473446210028   1   1   1   1
  0.0044932913699904   2   1   1   1
  0.0039021888370851   2   1   2   1
  0.0039021888370851   2   2   1   1
  0.0051164375834267   2   2   2   1
  0.8168886371465008   2   2   2   2
  0.0073940073523221   3   1   1   1
  0.0060420344902145   3   1   2   1
  0.0028668027426681   3   1   2   2
  0.0095703713591395   3   1   3   1
  0.0060420344902145   3   2   1   1
  0.0028668027426681   3   2   2   1
 -0.8224422598209963   3   2   2   2
  0.0099872152371452   3   2   3   1
  0.8560615456192805   3   2   3   2
  0.0095703713591395   3   3   1   1
  0.0099872152371452   3   3   2   1
  0.8560615456192807   3   3   2   2
  0.0102281997101563   3   3   3   1
 -0.8521924381270618   3   3   3   2
  0.9027517557926525   3   3   3   3
 -0.0022673921380417   4   1   1   1
 -0.0019835276711793   4   1   2   1
 -0.0030785532661954   4   1   2   2
 -0.0031040345227020   4   1   3   1
 -0.0030483932398520   4   1   3   2
 -0.0055287921622881   4   1   3   3
  0.0014392473500579   4   1   4   1
 -0.0019835276711793   4   2   1   1
 -0.0030785532661954   4   2   2   1
 -0.1710527297592905   4   2   2   2
 -0.0030483932398520   4   2   3   1
  0.1914664082878408   4   2   3   2
 -0.1814697547438225   4   2   3   3
 -0.0026273186167137   4   2   4   1
  0.0849681672650020   4   2   4   2
 -0.0031040345227020   4   3   1   1
 -0.0030483932398520   4   3   2   1
  0.1914664082878409   4   3   2   2
 -0.0055287921622881   4   3   3   1
 -0.1814697547438225   4   3   3   2
  0.1959977641795500   4   3   3   3
 -0.0020675199060408   4   3   4   1
  0.0035406549611512   4   3   4   2
  0.0864469911076958   4   3   4   3
  0.0014392473500579   4   4   1   1
 -0.0026273186167137   4   4   2   1
  0.0849681672650020   4   4   2   2
 -0.0020675199060407   4   4   3   1
  0.0035406549611513   4   4   3   2
  0.0864469911076959   4   4   3   3
 -0.0159422388865141   4   4   4   1
  0.1805437494296787   4   4   4   2
  0.1946756535332163   4   4   4   3
  0.8185942005743475   4   4   4   4
  0.0008734725184341   5   1   1   1
  0.0003860028156759   5   1   2   1
  0.0006420431001859   5   1   2   2
  0.0007386698688817   5   1   3   1
  0.0019123708350186   5   1   3   2
  0.0012821541498943   5   1   3   3
 -0.0004067551209799   5   1   4   1
  0.0032264980896595   5   1   4   2
  0.0031651247613670   5   1   4   3
  0.0149269953832943   5   1   4   4
  0.0005490377676132   5   1   5   1
  0.0003860028156759   5   2   1   1
  0.0006420431001859   5   2   2   1
 -0.1941680647030712   5   2   2   2
  0.0019123708350186   5   2   3   1
  0.1788578437005605   5   2   3   2
 -0.2018829120384428   5   2   3   3
  0.0032264980896595   5   2   4   1
 -0.0026114898153111   5   2   4   2
 -0.0861139372839841   5   2   4   3
 -0.1979839059225008   5   2   4   4
 -0.0037391459168873   5   2   5   1
  0.0879422918565876   5   2   5   2
  0.0007386698688817   5   3   1   1
  0.0019123708350186   5   3   2   1
  0.1788578437005605   5   3   2   2
  0.0012821541498943   5   3   3   1
 -0.2018829120384429   5   3   3   2
  0.1880782334189140   5   3   3   3
  0.0031651247613670   5   3   4   1
 -0.0861139372839841   5   3   4   2
 -0.0009737883109728   5   3   4   3
 -0.1800329918008004   5   3   4   4
 -0.0034636027834670   5   3   5   1
  0.0011172167766522   5   3   5   2
  0.0879345313366054   5   3   5   3
 -0.0004067551209799   5   4   1   1
  0.0032264980896595   5   4   2   1
 -0.0026114898153111   5   4   2   2
  0.0031651247613670   5   4   3   1
 -0.0861139372839841   5   4   3   2
 -0.0009737883109728   5   4   3   3
  0.0149269953832943   5   4   4   1
 -0.1979839059225008   5   4   4   2
 -0.1800329918008004   5   4   4   3
 -0.8175654443337741   5   4   4   4
 -0.0161355744334649   5   4   5   1
  0.1862739658092294   5   4   5   2
  0.1999491953452870   5   4   5   3
  0.8408844801030966   5   4   5   4
  0.0005490377676132   5   5   1   1
 -0.0037391459168873   5   5   2   1
  0.0879422918565876   5   5   2   2
 -0.0034636027834670   5   5   3   1
  0.0011172167766522   5   5   3   2
  0.0879345313366054   5   5   3   3
 -0.0161355744334649   5   5   4   1
  0.1862739658092295   5   5   4   2
  0.1999491953452870   5   5   4   3
  0.8408844801030966   5   5   4   4
  0.0148019107120552   5   5   5   1
 -0.2014775056217517   5   5   5   2
 -0.1847946651028492   5   5   5   3
 -0.8336881962857986   5   5   5   4
  0.8664267240101108   5   5   5   5
  0.0197678330056740   6   1   1   1
  0.0157464196282892   6   1   2   1
  0.0140700610048221   6   1   2   2
  0.0251344365890123   6   1   3   1
  0.0205409255817538   6   1   3   2
  0.0335467881899392   6   1   3   3
 -0.0082887757281886   6   1   4   1
 -0.0069050177135919   6   1   4   2
 -0.0109935563721496   6   1   4   3
  0.0048240609911761   6   1   4   4
  0.0021896171998540   6   1   5   1
  0.0017060397192215   6   1   5   2
  0.0024987946073864   6   1   5   3
 -0.0003593557950922   6   1   5   4
  0.0018857103083178   6   1   5   5
  0.0664121622890846   6   1   6   1
  0.0157464196282892   6   2   1   1
  0.0140700610048221   6   2   2   1
  0.1946098748915470   6   2   2   2
  0.0205409255817538   6   2   3   1
 -0.1701451125113799   6   2   3   2
  0.2195861605940731   6   2   3   3
 -0.0069050177135919   6   2   4   1
 -0.0490530772638540   6   2   4   2
  0.0313041552055345   6   2   4   3
  0.0049323154106829   6   2   4   4
  0.0017060397192215   6   2   5   1
 -0.0407357671706925   6   2   5   2
  0.0464179739910039   6   2   5   3
  0.0106408249962323   6   2   5   4
  0.0001213144729748   6   2   5   5
  0.0546994621225379   6   2   6   1
  0.0902930623074168   6   2   6   2
  0.0251344365890123   6   3   1   1
  0.0205409255817538   6   3   2   1
 -0.1701451125113799   6   3   2   2
  0.0335467881899392   6   3   3   1
  0.2195861605940731   6   3   3   2
 -0.1524788114054696   6   3   3   3
 -0.0109935563721496   6   3   4   1
  0.0313041552055345   6   3   4   2
 -0.0586195627995557   6   3   4   3
 -0.0085950768935657   6   3   4   4
  0.0024987946073864   6   3   5   1
  0.0464179739910039   6   3   5   2
 -0.0393745713035241   6   3   5   3
 -0.0045365846482093   6   3   5   4
 -0.0132618143219292   6   3   5   5
  0.0866753422128418   6   3   6   1
  0.0301570162506940   6   3   6   2
  0.1585022142156443   6   3   6   3
 -0.0082887757281886   6   4   1   1
 -0.0069050177135919   6   4   2   1
 -0.0490530772638540   6   4   2   2
 -0.0109935563721496   6   4   3   1
  0.0313041552055345   6   4   3   2
 -0.0586195627995556   6   4   3   3
  0.0048240609911761   6   4   4   1
  0.0049323154106829   6   4   4   2
 -0.0085950768935657   6   4   4   3
 -0.0305649486951351   6   4   4   4
 -0.0003593557950922   6   4   5   1
  0.0106408249962323   6   4   5   2
 -0.0045365846482093   6   4   5   3
  0.0139544216884162   6   4   5   4
 -0.0341062058844714   6   4   5   5
 -0.0300279639575298   6   4   6   1
 -0.0301529812320012   6   4   6   2
 -0.0303159377266589   6   4   6   3
  0.0241433837879619   6   4   6   4
  0.0021896171998540   6   5   1   1
  0.0017060397192215   6   5   2   1
 -0.0407357671706924   6   5   2   2
  0.0024987946073864   6   5   3   1
  0.0464179739910039   6   5   3   2
 -0.0393745713035241   6   5   3   3
 -0.0003593557950922   6   5   4   1
  0.0106408249962323   6   5   4   2
 -0.0045365846482093   6   5   4   3
  0.0139544216884162   6   5   4   4
  0.0018857103083178   6   5   5   1
  0.0001213144729748   6   5   5   2
 -0.0132618143219292   6   5   5   3
 -0.0341062058844714   6   5   5   4
  0.0076363527014419   6   5   5   5
  0.0056112028459151   6   5   6   1
  0.0011010330196694   6   5   6   2
  0.0165368964234060   6   5   6   3
  0.0101929647045842   6   5   6   4
  0.0198691927508760   6   5   6   5
  0.0664121622890846   6   6   1   1
  0.0546994621225379   6   6   2   1
  0.0902930623074168   6   6   2   2
  0.0866753422128418   6   6   3   1
  0.0301570162506940   6   6   3   2
  0.1585022142156443   6   6   3   3
 -0.0300279639575298   6   6   4   1
 -0.0301529812320012   6   6   4   2
 -0.0303159377266589   6   6   4   3
  0.0241433837879619   6   6   4   4
  0.0056112028459150   6   6   5   1
  0.0011010330196694   6   6   5   2
  0.0165368964234060   6   6   5   3
  0.0101929647045842   6   6   5   4
  0.0198691927508760   6   6   5   5
  0.2292406479827840   6   6   6   1
  0.1946098748915469   6   6   6   2
  0.2931214524134321   6   6   6   3
 -0.1177273630570541   6   6   6   4
  0.0007799621920659   6   6   6   5
  0.8150762742701049   6   6   6   6
  0.0097870424479760   7   1   1   1
  0.0078362115629329   7   1   2   1
  0.0061705981003663   7   1   2   2
  0.0123716214465335   7   1   3   1
  0.0102267035986263   7   1   3   2
  0.0160722021208202   7   1   3   3
 -0.0038007292957024   7   1   4   1
 -0.0049169756338027   7   1   4   2
 -0.0060332856409450   7   1   4   3
 -0.0027932884587831   7   1   4   4
  0.0013140183466780   7   1   5   1
  0.0006635639547860   7   1   5   2
  0.0023102964866813   7   1   5   3
  0.0011251856089883   7   1   5   4
 -0.0058460421687327   7   1   5   5
  0.0324282909852555   7   1   6   1
  0.0281468844427963   7   1   6   2
  0.0423509521105889   7   1   6   3
 -0.0118336704572596   7   1   6   4
  0.0065962965762414   7   1   6   5
  0.1080585167395381   7   1   6   6
  0.0168082697127005   7   1   7   1
  0.0078362115629329   7   2   1   1
  0.0061705981003663   7   2   2   1
  0.0160443652035433   7   2   2   2
  0.0102267035986263   7   2   3   1
  0.0034362518354726   7   2   3   2
  0.0233894547839362   7   2   3   3
 -0.0049169756338027   7   2   4   1
  0.0075280170805997   7   2   4   2
  0.0057509443574620   7   2   4   3
  0.0488033595799566   7   2   4   4
  0.0006635639547860   7   2   5   1
 -0.0072899500129112   7   2   5   2
 -0.0079839789103644   7   2   5   3
 -0.0346897543598554   7   2   5   4
  0.0533301872687612   7   2   5   5
  0.0281468844427963   7   2   6   1
  0.0201475093682498   7   2   6   2
  0.0352910210103934   7   2   6   3
 -0.0228090758055906   7   2   6   4
 -0.0092248855365052   7   2   6   5
  0.1101688036559076   7   2   6   6
  0.0105641962718512   7   2   7   1
  0.0235388299310703   7   2   7   2
  0.0123716214465335   7   3   1   1
  0.0102267035986263   7   3   2   1
  0.0034362518354726   7   3   2   2
  0.0160722021208202   7   3   3   1
  0.0233894547839362   7   3   3   2
  0.0160348789048110   7   3   3   3
 -0.0060332856409450   7   3   4   1
  0.0057509443574620   7   3   4   2
  0.0007257381530890   7   3   4   3
  0.0417325641975030   7   3   4   4
  0.0023102964866813   7   3   5   1
 -0.0079839789103644   7   3   5   2
 -0.0092244189532470   7   3   5   3
 -0.0447411611000275   7   3   5   4
  0.0388022078267302   7   3   5   5
  0.0423509521105889   7   3   6   1
  0.0352910210103934   7   3   6   2
  0.0572467053359847   7   3   6   3
 -0.0171530745442831   7   3   6   4
  0.0097534372064160   7   3   6   5
  0.1423957346677325   7   3   6   6
  0.0215451975194418   7   3   7   1
  0.0168011117416453   7   3   7   2
  0.0309797298942500   7   3   7   3
 -0.0038007292957024   7   4   1   1
 -0.0049169756338027   7   4   2   1
  0.0075280170805997   7   4   2   2
 -0.0060332856409450   7   4   3   1
  0.0057509443574620   7   4   3   2
  0.0007257381530891   7   4   3   3
 -0.0027932884587831   7   4   4   1
  0.0488033595799566   7   4   4   2
  0.0417325641975030   7   4   4   3
  0.1900231220388533   7   4   4   4
  0.0011251856089883   7   4   5   1
 -0.0346897543598554   7   4   5   2
 -0.0447411611000275   7   4   5   3
 -0.1655089351700548   7   4   5   4
  0.2060649912545433   7   4   5   5
 -0.0118336704572596   7   4   6   1
 -0.0228090758055906   7   4   6   2
 -0.0171530745442831   7   4   6   3
 -0.0180031398348934   7   4   6   4
 -0.0238670092522023   7   4   6   5
 -0.0159739797708480   7   4   6   6
 -0.0132616457097318   7   4   7   1
  0.0248926009189960   7   4   7   2
 -0.0066634850231523   7   4   7   3
  0.0898962657529455   7   4   7   4
  0.0013140183466780   7   5   1   1
  0.0006635639547859   7   5   2   1
 -0.0072899500129112   7   5   2   2
  0.0023102964866813   7   5   3   1
 -0.0079839789103644   7   5   3   2
 -0.0092244189532470   7   5   3   3
  0.0011251856089883   7   5   4   1
 -0.0346897543598553   7   5   4   2
 -0.0447411611000275   7   5   4   3
 -0.1655089351700547   7   5   4   4
 -0.0058460421687327   7   5   5   1
  0.0533301872687612   7   5   5   2
  0.0388022078267302   7   5   5   3
  0.2060649912545433   7   5   5   4
 -0.1547602025336533   7   5   5   5
  0.0065962965762414   7   5   6   1
 -0.0092248855365052   7   5   6   2
  0.0097534372064160   7   5   6   3
 -0.0238670092522023   7   5   6   4
 -0.0431215863666889   7   5   6   5
  0.0589393682316269   7   5   6   6
 -0.0052321430128601   7   5   7   1
  0.0223128922776156   7   5   7   2
 -0.0162895601488538   7   5   7   3
  0.0249896947345568   7   5   7   4
  0.1328720394028110   7   5   7   5
  0.0324282909852555   7   6   1   1
  0.0281468844427963   7   6   2   1
  0.0201475093682498   7   6   2   2
  0.0423509521105889   7   6   3   1
  0.0352910210103934   7   6   3   2
  0.0572467053359847   7   6   3   3
 -0.0118336704572596   7   6   4   1
 -0.0228090758055906   7   6   4   2
 -0.0171530745442830   7   6   4   3
 -0.0180031398348934   7   6   4   4
  0.0065962965762414   7   6   5   1
 -0.0092248855365052   7   6   5   2
  0.0097534372064160   7   6   5   3
 -0.0238670092522023   7   6   5   4
 -0.0431215863666889   7   6   5   5
  0.1080585167395381   7   6   6   1
  0.1101688036559076   7   6   6   2
  0.1423957346677325   7   6   6   3
 -0.0159739797708480   7   6   6   4
  0.0589393682316269   7   6   6   5
  0.3283276590431319   7   6   6   6
  0.0646341533978400   7   6   7   1
  0.0087861584160082   7   6   7   2
  0.0839695548913842   7   6   7   3
 -0.1064691145055166   7   6   7   4
 -0.1069137011140887   7   6   7   5
  0.3309525503661234   7   6   7   6
  0.0168082697127005   7   7   1   1
  0.0105641962718512   7   7   2   1
  0.0235388299310703   7   7   2   2
  0.0215451975194418   7   7   3   1
  0.0168011117416453   7   7   3   2
  0.0309797298942500   7   7   3   3
 -0.0132616457097318   7   7   4   1
  0.0248926009189960   7   7   4   2
 -0.0066634850231524   7   7   4   3
  0.0898962657529455   7   7   4   4
 -0.0052321430128601   7   7   5   1
  0.0223128922776156   7   7   5   2
 -0.0162895601488538   7   7   5   3
  0.0249896947345568   7   7   5   4
  0.1328720394028110   7   7   5   5
  0.0646341533978400   7   7   6   1
  0.0087861584160083   7   7   6   2
  0.0839695548913842   7   7   6   3
 -0.1064691145055166   7   7   6   4
 -0.1069137011140887   7   7   6   5
  0.3309525503661235   7   7   6   6
  0.0043125072577027   7   7   7   1
  0.1139137436142510   7   7   7   2
  0.0106495445632342   7   7   7   3
  0.1900231220388534   7   7   7   4
  0.2647634563683807   7   7   7   5
 -0.2405756652891167   7   7   7   6
  0.8444191518395001   7   7   7   7
  0.0103193633689213   8   1   1   1
  0.0126255173683291   8   1   2   1
  0.0102770573595336   8   1   2   2
  0.0180196936394854   8   1   3   1
  0.0167543089996076   8   1   3   2
  0.0250790464170330   8   1   3   3
 -0.0073321276996483   8   1   4   1
 -0.0052154876819049   8   1   4   2
 -0.0086821855688490   8   1   4   3
  0.0039136004703642   8   1   4   4
 -0.0001598198779457   8   1   5   1
  0.0010434036009125   8   1   5   2
  0.0011036136534703   8   1   5   3
 -0.0023162336600327   8   1   5   4
  0.0005570407200313   8   1   5   5
  0.0453046915164379   8   1   6   1
  0.0432692184786601   8   1   6   2
  0.0655590430474907   8   1   6   3
 -0.0235822618388041   8   1   6   4
  0.0032435691051838   8   1   6   5
  0.1690314347187876   8   1   6   6
  0.0218701438540620   8   1   7   1
  0.0211746120035470   8   1   7   2
  0.0321798108919012   8   1   7   3
 -0.0118570528263192   8   1   7   4
  0.0005061697005292   8   1   7   5
  0.0832792197742920   8   1   7   6
  0.0388482641399617   8   1   7   7
  0.0594677260628431   8   1   8   1
  0.0126255173683291   8   2   1   1
  0.0102770573595336   8   2   2   1
 -0.0768487875221187   8   2   2   2
  0.0167543089996076   8   2   3   1
  0.0998989730910829   8   2   3   2
 -0.0677235503394082   8   2   3   3
 -0.0052154876819049   8   2   4   1
  0.0107969739435639   8   2   4   2
 -0.0301301246919930   8   2   4   3
 -0.0164032270095808   8   2   4   4
  0.0010434036009125   8   2   5   1
  0.0241425390169569   8   2   5   2
 -0.0146475517118459   8   2   5   3
  0.0109712997645599   8   2   5   4
 -0.0190027918823115   8   2   5   5
  0.0432692184786601   8   2   6   1
  0.0169180095653550   8   2   6   2
  0.0768998802086334   8   2   6   3
 -0.0151985132454816   8   2   6   4
  0.0075170770751754   8   2   6   5
  0.1462683962083586   8   2   6   6
  0.0211746120035470   8   2   7   1
  0.0170535319915595   8   2   7   2
  0.0278694092863306   8   2   7   3
 -0.0111394555959677   8   2   7   4
  0.0077637368984870   8   2   7   5
  0.0710010813030965   8   2   7   6
  0.0415041904226762   8   2   7   7
  0.0319254972801374   8   2   8   1
  0.0376560423614867   8   2   8   2
  0.0180196936394854   8   3   1   1
  0.0167543089996076   8   3   2   1
  0.0998989730910829   8   3   2   2
  0.0250790464170330   8   3   3   1
 -0.0677235503394082   8   3   3   2
  0.1236793306948559   8   3   3   3
 -0.0086821855688490   8   3   4   1
 -0.0301301246919930   8   3   4   2
  0.0046323555305233   8   3   4   3
 -0.0069174946678676   8   3   4   4
  0.0011036136534703   8   3   5   1
 -0.0146475517118459   8   3   5   2
  0.0261106770548200   8   3   5   3
  0.0184173476820566   8   3   5   4
 -0.0110816589210322   8   3   5   5
  0.0655590430474906   8   3   6   1
  0.0768998802086334   8   3   6   2
  0.0684967143571214   8   3   6   3
 -0.0343087981864649   8   3   6   4
  0.0015210139729937   8   3   6   5
  0.2353364800063775   8   3   6   6
  0.0321798108919012   8   3   7   1
  0.0278694092863306   8   3   7   2
  0.0421792971383588   8   3   7   3
 -0.0189108153704828   8   3   7   4
  0.0053404329910066   8   3   7   5
  0.1148781323771404   8   3   7   6
  0.0528720733427548   8   3   7   7
  0.0581964611944835   8   3   8   1
  0.0350568255732241   8   3   8   2
  0.0807580118572956   8   3   8   3
 -0.0073321276996483   8   4   1   1
 -0.0052154876819049   8   4   2   1
  0.0107969739435639   8   4   2   2
 -0.0086821855688490   8   4   3   1
 -0.0301301246919930   8   4   3   2
  0.0046323555305233   8   4   3   3
  0.0039136004703642   8   4   4   1
 -0.0164032270095808   8   4   4   2
 -0.0069174946678676   8   4   4   3
 -0.0648133382241843   8   4   4   4
 -0.0023162336600327   8   4   5   1
  0.0109712997645599   8   4   5   2
  0.0184173476820566   8   4   5   3
  0.0682366513393784   8   4   5   4
 -0.0644362665649348   8   4   5   5
 -0.0235822618388041   8   4   6   1
 -0.0151985132454816   8   4   6   2
 -0.0343087981864649   8   4   6   3
  0.0095433409756433   8   4   6   4
 -0.0072574650881990   8   4   6   5
 -0.0771642936529262   8   4   6   6
 -0.0118570528263192   8   4   7   1
 -0.0111394555959677   8   4   7   2
 -0.0189108153704828   8   4   7   3
 -0.0062496047877003   8   4   7   4
  0.0176596133040251   8   4   7   5
 -0.0446574591479644   8   4   7   6
 -0.0095184578074425   8   4   7   7
 -0.0141127180825962   8   4   8   1
 -0.0159458414213313   8   4   8   2
 -0.0191928017828067   8   4   8   3
  0.0145511182872386   8   4   8   4
 -0.0001598198779457   8   5   1   1
  0.0010434036009125   8   5   2   1
  0.0241425390169569   8   5   2   2
  0.0011036136534703   8   5   3   1
 -0.0146475517118459   8   5   3   2
  0.0261106770548200   8   5   3   3
 -0.0023162336600327   8   5   4   1
  0.0109712997645599   8   5   4   2
  0.0184173476820566   8   5   4   3
  0.0682366513393784   8   5   4   4
  0.0005570407200313   8   5   5   1
 -0.0190027918823115   8   5   5   2
 -0.0110816589210322   8   5   5   3
 -0.0644362665649348   8   5   5   4
  0.0705068824380270   8   5   5   5
  0.0032435691051838   8   5   6   1
  0.0075170770751754   8   5   6   2
  0.0015210139729937   8   5   6   3
 -0.0072574650881991   8   5   6   4
 -0.0022174480587083   8   5   6   5
  0.0194278432547506   8   5   6   6
  0.0005061697005292   8   5   7   1
  0.0077637368984870   8   5   7   2
  0.0053404329910066   8   5   7   3
  0.0176596133040251   8   5   7   4
 -0.0085567819132130   8   5   7   5
 -0.0012520157779744   8   5   7   6
  0.0254153292229029   8   5   7   7
  0.0118211618722077   8   5   8   1
 -0.0003679676053801   8   5   8   2
  0.0082818790001723   8   5   8   3
 -0.0048453996876459   8   5   8   4
  0.0097627792753697   8   5   8   5
  0.0453046915164379   8   6   1   1
  0.0432692184786601   8   6   2   1
  0.0169180095653550   8   6   2   2
  0.0655590430474906   8   6   3   1
  0.0768998802086334   8   6   3   2
  0.0684967143571214   8   6   3   3
 -0.0235822618388041   8   6   4   1
 -0.0151985132454816   8   6   4   2
 -0.0343087981864649   8   6   4   3
  0.0095433409756433   8   6   4   4
  0.0032435691051838   8   6   5   1
  0.0075170770751754   8   6   5   2
  0.0015210139729937   8   6   5   3
 -0.0072574650881991   8   6   5   4
 -0.0022174480587083   8   6   5   5
  0.1690314347187876   8   6   6   1
  0.1462683962083586   8   6   6   2
  0.2353364800063776   8   6   6   3
 -0.0771642936529262   8   6   6   4
  0.0194278432547505   8   6   6   5
  0.5977405893166731   8   6   6   6
  0.0832792197742920   8   6   7   1
  0.0710010813030965   8   6   7   2
  0.1148781323771404   8   6   7   3
 -0.0446574591479644   8   6   7   4
 -0.0012520157779745   8   6   7   5
  0.3058931920133237   8   6   7   6
  0.1215889658310655   8   6   7   7
  0.1616233909419820   8   6   8   1
  0.1160866198466890   8   6   8   2
  0.1870843225163746   8   6   8   3
 -0.0579126391623770   8   6   8   4
  0.0222787815880589   8   6   8   5
  0.5075841685058379   8   6   8   6
  0.0218701438540620   8   7   1   1
  0.0211746120035470   8   7   2   1
  0.0170535319915595   8   7   2   2
  0.0321798108919012   8   7   3   1
  0.0278694092863306   8   7   3   2
  0.0421792971383588   8   7   3   3
 -0.0118570528263192   8   7   4   1
 -0.0111394555959677   8   7   4   2
 -0.0189108153704828   8   7   4   3
 -0.0062496047877004   8   7   4   4
  0.0005061697005292   8   7   5   1
  0.0077637368984870   8   7   5   2
  0.0053404329910066   8   7   5   3
  0.0176596133040251   8   7   5   4
 -0.0085567819132130   8   7   5   5
  0.0832792197742920   8   7   6   1
  0.0710010813030965   8   7   6   2
  0.1148781323771404   8   7   6   3
 -0.0446574591479644   8   7   6   4
 -0.0012520157779744   8   7   6   5
  0.3058931920133236   8   7   6   6
  0.0388482641399617   8   7   7   1
  0.0415041904226762   8   7   7   2
  0.0528720733427547   8   7   7   3
 -0.0095184578074425   8   7   7   4
  0.0254153292229029   8   7   7   5
  0.1215889658310655   8   7   7   6
  0.1255775450813570   8   7   7   7
  0.0814682937480340   8   7   8   1
  0.0567057909746199   8   7   8   2
  0.0933972181240541   8   7   8   3
 -0.0256321585523519   8   7   8   4
  0.0125629503173846   8   7   8   5
  0.2494816792258709   8   7   8   6
  0.1297480258010343   8   7   8   7
  0.0594677260628431   8   8   1   1
  0.0319254972801374   8   8   2   1
  0.0376560423614867   8   8   2   2
  0.0581964611944834   8   8   3   1
  0.0350568255732240   8   8   3   2
  0.0807580118572956   8   8   3   3
 -0.0141127180825962   8   8   4   1
 -0.0159458414213313   8   8   4   2
 -0.0191928017828067   8   8   4   3
  0.0145511182872386   8   8   4   4
  0.0118211618722077   8   8   5   1
 -0.0003679676053801   8   8   5   2
  0.0082818790001723   8   8   5   3
 -0.0048453996876458   8   8   5   4
  0.0097627792753697   8   8   5   5
  0.1616233909419820   8   8   6   1
  0.1160866198466890   8   8   6   2
  0.1870843225163746   8   8   6   3
 -0.0579126391623771   8   8   6   4
  0.0222787815880589   8   8   6   5
  0.5075841685058379   8   8   6   6
  0.0814682937480340   8   8   7   1
  0.0567057909746199   8   8   7   2
  0.0933972181240541   8   8   7   3
 -0.0256321585523519   8   8   7   4
  0.0125629503173846   8   8   7   5
  0.2494816792258709   8   8   7   6
  0.1297480258010343   8   8   7   7
  0.0095899702188703   8   8   8   1
  0.0960776071142788   8   8   8   2
  0.1128660433741707   8   8   8   3
 -0.0658629391747840   8   8   8   4
 -0.0263447865456010   8   8   8   5
  0.2495802387714388   8   8   8   6
  0.1128478935663742   8   8   8   7
  0.7521299868716544   8   8   8   8
 -0.0025463036589847   9   1   1   1
 -0.0017910947911035   9   1   2   1
 -0.0015671189050209   9   1   2   2
 -0.0030494866057566   9   1   3   1
 -0.0024362765633391   9   1   3   2
 -0.0036835539685303   9   1   3   3
  0.0010275885507288   9   1   4   1
  0.0008014674943183   9   1   4   2
  0.0020162926650827   9   1   4   3
  0.0006671531888010   9   1   4   4
 -0.0001125598058639   9   1   5   1
 -0.0015025957056202   9   1   5   2
 -0.0005752461162222   9   1   5   3
 -0.0038824322766150   9   1   5   4
 -0.0000364677033402   9   1   5   5
 -0.0082952874472553   9   1   6   1
 -0.0055277406962774   9   1   6   2
 -0.0106735026569108   9   1   6   3
  0.0053187705603622   9   1   6   4
  0.0020239168635979   9   1   6   5
 -0.0307361091238537   9   1   6   6
 -0.0034463932300674   9   1   7   1
 -0.0052789795736024   9   1   7   2
 -0.0042216342434157   9   1   7   3
 -0.0026652034360937   9   1   7   4
 -0.0078083796592301   9   1   7   5
 -0.0049187525970212   9   1   7   6
 -0.0265586972566161   9   1   7   7
 -0.0043399131512714   9   1   8   1
 -0.0053700678664863   9   1   8   2
 -0.0073768255479642   9   1   8   3
  0.0024722136001297   9   1   8   4
 -0.0002884191246472   9   1   8   5
 -0.0181064312646307   9   1   8   6
 -0.0105660415643735   9   1   8   7
 -0.0238090223320084   9   1   8   8
  0.0015525188485697   9   1   9   1
 -0.0017910947911035   9   2   1   1
 -0.0015671189050209   9   2   2   1
  0.0572224595916813   9   2   2   2
 -0.0024362765633391   9   2   3   1
 -0.0643039469425931   9   2   3   2
  0.0570334822853311   9   2   3   3
  0.0008014674943183   9   2   4   1
 -0.0168999768723987   9   2   4   2
  0.0073124131454014   9   2   4   3
 -0.0215127400530804   9   2   4   4
 -0.0015025957056202   9   2   5   1
 -0.0039161461613269   9   2   5   2
  0.0192076079304559   9   2   5   3
  0.0385265688242722   9   2   5   4
 -0.0172352392919633   9   2   5   5
 -0.0055277406962773   9   2   6   1
  0.0044134903402931   9   2   6   2
 -0.0209190852888191   9   2   6   3
 -0.0071931571362067   9   2   6   4
 -0.0157079404896591   9   2   6   5
 -0.0056138469588862   9   2   6   6
 -0.0052789795736024   9   2   7   1
  0.0050684482615098   9   2   7   2
 -0.0089730748124985   9   2   7   3
  0.0139713452842678   9   2   7   4
  0.0326690457436846   9   2   7   5
 -0.0438174992622047   9   2   7   6
  0.0716387478607110   9   2   7   7
 -0.0053700678664863   9   2   8   1
 -0.0093575155162987   9   2   8   2
 -0.0001569755683450   9   2   8   3
  0.0072157837865797   9   2   8   4
  0.0004446708299480   9   2   8   5
 -0.0216039766007848   9   2   8   6
 -0.0027145757081578   9   2   8   7
 -0.0121582392368238   9   2   8   8
 -0.0013118521054879   9   2   9   1
  0.0137453931701432   9   2   9   2
 -0.0030494866057566   9   3   1   1
 -0.0024362765633391   9   3   2   1
 -0.0643039469425931   9   3   2   2
 -0.0036835539685303   9   3   3   1
  0.0570334822853311   9   3   3   2
 -0.0694052969152577   9   3   3   3
  0.0020162926650827   9   3   4   1
  0.0073124131454014   9   3   4   2
 -0.0182067146173036   9   3   4   3
 -0.0333109969789988   9   3   4   4
 -0.0005752461162222   9   3   5   1
  0.0192076079304559   9   3   5   2
 -0.0078917340067032   9   3   5   3
  0.0238352844142064   9   3   5   4
 -0.0345853518172310   9   3   5   5
 -0.0106735026569108   9   3   6   1
 -0.0209190852888191   9   3   6   2
  0.0009425198301311   9   3   6   3
  0.0108360479524984   9   3   6   4
  0.0038873669767231   9   3   6   5
 -0.0412837286467158   9   3   6   6
 -0.0042216342434157   9   3   7   1
 -0.0089730748124985   9   3   7   2
 -0.0076158490700880   9   3   7   3
 -0.0096814226345191   9   3   7   4
 -0.0010578141696381   9   3   7   5
 -0.0095389339333598   9   3   7   6
 -0.0308058812481921   9   3   7   7
 -0.0073768255479642   9   3   8   1
 -0.0001569755683450   9   3   8   2
 -0.0166934057631973   9   3   8   3
  0.0040586081607732   9   3   8   4
 -0.0044087383721019   9   3   8   5
 -0.0258622315875622   9   3   8   6
 -0.0129803858962897   9   3   8   7
 -0.0239334398504966   9   3   8   8
  0.0014664259442267   9   3   9   1
 -0.0040801398531631   9   3   9   2
  0.0107093823096262   9   3   9   3
  0.0010275885507288   9   4   1   1
  0.0008014674943183   9   4   2   1
 -0.0168999768723987   9   4   2   2
  0.0020162926650827   9   4   3   1
  0.0073124131454014   9   4   3   2
 -0.0182067146173036   9   4   3   3
  0.0006671531888010   9   4   4   1
 -0.0215127400530804   9   4   4   2
 -0.0333109969789988   9   4   4   3
 -0.1141389302078787   9   4   4   4
 -0.0038824322766150   9   4   5   1
  0.0385265688242722   9   4   5   2
  0.0238352844142064   9   4   5   3
  0.1384870710186364   9   4   5   4
 -0.1077954954542775   9   4   5   5
  0.0053187705603622   9   4   6   1
 -0.0071931571362067   9   4   6   2
  0.0108360479524984   9   4   6   3
 -0.0147634328833998   9   4   6   4
 -0.0265941357413694   9   4   6   5
  0.0410508373288635   9   4   6   6
 -0.0026652034360937   9   4   7   1
  0.0139713452842678   9   4   7   2
 -0.0096814226345191   9   4   7   3
  0.0130974847477085   9   4   7   4
  0.0854390477277951   9   4   7   5
 -0.0645607568727083   9   4   7   6
  0.1663553241408673   9   4   7   7