 &FCI NORB= 16,NELEC= 16,MS2= 0,
  ORBSYM=1,1,1,1,1,1,1,1,1,1,1,1,1,1,1,1,
  ISYM=1,
 &END
  4.0000000000000000   1   1   1   1
  4.0000000000000000   2   2   2   2
  4.0000000000000000   3   3   3   3
  4.0000000000000000   4   4   4   4
  4.0000000000000000   5   5   5   5
  4.0000000000000000   6   6   6   6
  4.0000000000000000   7   7   7   7
  4.0000000000000000   8   8   8   8
 -2.0000000000000000   1   1   0   0
 -1.0000000000000000   2   1   0   0
 -2.0000000000000000   2   2   0   0
 -1.0000000000000000   3   2   0   0
 -2.0000000000000000   3   3   0   0
 -1.0000000000000000   4   3   0   0
 -2.0000000000000000   4   4   0   0
 -1.0000000000000000   5   1   0   0
 -2.0000000000000000   5   5   0   0
 -1.0000000000000000   6   2   0   0
 -1.0000000000000000   6   5   0   0
 -2.0000000000000000   6   6   0   0
 -1.0000000000000000   7   3   0   0
 -1.0000000000000000   7   6   0   0
 -2.0000000000000000   7   7   0   0
 -1.0000000000000000   8   4   0   0
 -1.0000000000000000   8   7   0   0
 -2.0000000000000000   8   8   0   0
  0.7089829161692969   9   1   0   0
 -0.2777004665579987   9   3   0   0
 -0.2777004665580046   9   6   0   0
  0.7089829161692875   9   8   0   0
 -0.2777004665580020  10   2   0   0
  0.7089829161692913  10   4   0   0
  0.7089829161692924  10   5   0   0
 -0.2777004665580011  10   7   0   0
  0.2924266825985235  10   9   0   0
 -0.3463031284332266  11   2   0   0
 -0.4707307989482169  11   4   0   0
  0.4707307989482146  11   5   0   0
  0.3463031284332276  11   7   0   0
  0.4707307989482096  12   1   0   0
  0.3463031284332294  12   3   0   0
 -0.3463031284332249  12   6   0   0
 -0.4707307989482211  12   8   0   0
 -0.0376392702721300  12  11   0   0
 -0.5529495422161185  13   1   0   0
  0.3500704923031370  13   3   0   0
 -0.3500704923031372  13   6   0   0
  0.5529495422161192  13   8   0   0
  0.0917475182835750  13  11   0   0
  0.3500704923031375  14   2   0   0
 -0.5529495422161181  14   4   0   0
  0.5529495422161179  14   5   0   0
 -0.3500704923031376  14   7   0   0
 -0.0917475182835750  14  12   0   0
 -0.4599299182524930  14  13   0   0
 -0.2178858512130732  15   1   0   0
 -0.2775803348873694  15   3   0   0
 -0.2775803348873691  15   6   0   0
 -0.2178858512130725  15   8   0   0
 -0.0827418312352286  15  10   0   0
 -0.2775803348873694  16   2   0   0
 -0.2178858512130735  16   4   0   0
 -0.2178858512130724  16   5   0   0
 -0.2775803348873689  16   7   0   0
 -0.0827418312352288  16   9   0   0
  0.4740545847399828  16  15   0   0
 32.0000000000000000   0   0   0   0
